variables =  "IG"  "JG"  "PHI"  "Temp."  "Latent_heat"  "mm"
ZONE  I=  401  J=  101
   0     0    0.100000D+01    0.553022D+00    0.000000D+00    0.383223D+00
   0     1    0.100000D+01    0.553022D+00    0.000000D+00    0.383223D+00
   0     2    0.100000D+01    0.554087D+00    0.000000D+00    0.382979D+00
   0     3    0.100000D+01    0.556207D+00    0.000000D+00    0.382489D+00
   0     4    0.100000D+01    0.559360D+00    0.000000D+00    0.381750D+00
   0     5    0.100000D+01    0.563511D+00    0.000000D+00    0.380757D+00
   0     6    0.100000D+01    0.568617D+00    0.000000D+00    0.379505D+00
   0     7    0.100000D+01    0.574627D+00    0.000000D+00    0.377984D+00
   0     8    0.100000D+01    0.581479D+00    0.000000D+00    0.376187D+00
   0     9    0.100000D+01    0.589105D+00    0.000000D+00    0.374102D+00
   0    10    0.100000D+01    0.597429D+00    0.000000D+00    0.371717D+00
   0    11    0.100000D+01    0.606372D+00    0.000000D+00    0.369020D+00
   0    12    0.100000D+01    0.615851D+00    0.000000D+00    0.365995D+00
   0    13    0.100000D+01    0.625778D+00    0.000000D+00    0.362628D+00
   0    14    0.100000D+01    0.636067D+00    0.000000D+00    0.358903D+00
   0    15    0.100000D+01    0.646630D+00    0.000000D+00    0.354805D+00
   0    16    0.100000D+01    0.657380D+00    0.000000D+00    0.350318D+00
   0    17    0.100000D+01    0.668235D+00    0.000000D+00    0.345429D+00
   0    18    0.100000D+01    0.679113D+00    0.000000D+00    0.340126D+00
   0    19    0.100000D+01    0.689938D+00    0.000000D+00    0.334399D+00
   0    20    0.100000D+01    0.700639D+00    0.000000D+00    0.328243D+00
   0    21    0.100000D+01    0.711152D+00    0.000000D+00    0.321658D+00
   0    22    0.100000D+01    0.721416D+00    0.000000D+00    0.314651D+00
   0    23    0.100000D+01    0.731380D+00    0.000000D+00    0.307236D+00
   0    24    0.100000D+01    0.740998D+00    0.000000D+00    0.299435D+00
   0    25    0.100000D+01    0.750232D+00    0.000000D+00    0.291281D+00
   0    26    0.100000D+01    0.759050D+00    0.000000D+00    0.282816D+00
   0    27    0.100000D+01    0.767428D+00    0.000000D+00    0.274094D+00
   0    28    0.100000D+01    0.775348D+00    0.000000D+00    0.265176D+00
   0    29    0.100000D+01    0.782798D+00    0.000000D+00    0.256134D+00
   0    30    0.100000D+01    0.789771D+00    0.000000D+00    0.247045D+00
   0    31    0.100000D+01    0.796269D+00    0.000000D+00    0.237991D+00
   0    32    0.100000D+01    0.802294D+00    0.000000D+00    0.229052D+00
   0    33    0.100000D+01    0.807856D+00    0.000000D+00    0.220309D+00
   0    34    0.100000D+01    0.812966D+00    0.000000D+00    0.211837D+00
   0    35    0.100000D+01    0.817641D+00    0.000000D+00    0.203703D+00
   0    36    0.100000D+01    0.821899D+00    0.000000D+00    0.195964D+00
   0    37    0.100000D+01    0.825760D+00    0.000000D+00    0.188664D+00
   0    38    0.100000D+01    0.829246D+00    0.000000D+00    0.181839D+00
   0    39    0.100000D+01    0.832380D+00    0.000000D+00    0.175509D+00
   0    40    0.100000D+01    0.835185D+00    0.000000D+00    0.169685D+00
   0    41    0.100000D+01    0.837686D+00    0.000000D+00    0.164366D+00
   0    42    0.100000D+01    0.839906D+00    0.000000D+00    0.159545D+00
   0    43    0.100000D+01    0.841868D+00    0.000000D+00    0.155203D+00
   0    44    0.100000D+01    0.843596D+00    0.000000D+00    0.151320D+00
   0    45    0.100000D+01    0.845110D+00    0.000000D+00    0.147868D+00
   0    46    0.100000D+01    0.846433D+00    0.000000D+00    0.144817D+00
   0    47    0.100000D+01    0.847583D+00    0.000000D+00    0.142137D+00
   0    48    0.100000D+01    0.848579D+00    0.000000D+00    0.139795D+00
   0    49    0.100000D+01    0.849439D+00    0.000000D+00    0.137760D+00
   0    50    0.100000D+01    0.850177D+00    0.000000D+00    0.135999D+00
   0    51    0.100000D+01    0.850809D+00    0.000000D+00    0.134484D+00
   0    52    0.100000D+01    0.851348D+00    0.000000D+00    0.133187D+00
   0    53    0.100000D+01    0.851806D+00    0.000000D+00    0.132081D+00
   0    54    0.100000D+01    0.852193D+00    0.000000D+00    0.131142D+00
   0    55    0.100000D+01    0.852519D+00    0.000000D+00    0.130349D+00
   0    56    0.100000D+01    0.852793D+00    0.000000D+00    0.129682D+00
   0    57    0.100000D+01    0.853022D+00    0.000000D+00    0.129123D+00
   0    58    0.100000D+01    0.853213D+00    0.000000D+00    0.128656D+00
   0    59    0.100000D+01    0.853371D+00    0.000000D+00    0.128269D+00
   0    60    0.100000D+01    0.853502D+00    0.000000D+00    0.127948D+00
   0    61    0.100000D+01    0.853609D+00    0.000000D+00    0.127684D+00
   0    62    0.100000D+01    0.853698D+00    0.000000D+00    0.127466D+00
   0    63    0.100000D+01    0.853770D+00    0.000000D+00    0.127289D+00
   0    64    0.100000D+01    0.853829D+00    0.000000D+00    0.127144D+00
   0    65    0.100000D+01    0.853877D+00    0.000000D+00    0.127027D+00
   0    66    0.100000D+01    0.853915D+00    0.000000D+00    0.126932D+00
   0    67    0.100000D+01    0.853946D+00    0.000000D+00    0.126855D+00
   0    68    0.100000D+01    0.853971D+00    0.000000D+00    0.126794D+00
   0    69    0.100000D+01    0.853991D+00    0.000000D+00    0.126745D+00
   0    70    0.100000D+01    0.854007D+00    0.000000D+00    0.126705D+00
   0    71    0.100000D+01    0.854020D+00    0.000000D+00    0.126674D+00
   0    72    0.100000D+01    0.854030D+00    0.000000D+00    0.126650D+00
   0    73    0.100000D+01    0.854038D+00    0.000000D+00    0.126630D+00
   0    74    0.100000D+01    0.854044D+00    0.000000D+00    0.126615D+00
   0    75    0.100000D+01    0.854049D+00    0.000000D+00    0.126603D+00
   0    76    0.100000D+01    0.854053D+00    0.000000D+00    0.126594D+00
   0    77    0.100000D+01    0.854056D+00    0.000000D+00    0.126586D+00
   0    78    0.100000D+01    0.854058D+00    0.000000D+00    0.126580D+00
   0    79    0.100000D+01    0.854060D+00    0.000000D+00    0.126576D+00
   0    80    0.100000D+01    0.854062D+00    0.000000D+00    0.126572D+00
   0    81    0.100000D+01    0.854063D+00    0.000000D+00    0.126569D+00
   0    82    0.100000D+01    0.854064D+00    0.000000D+00    0.126566D+00
   0    83    0.100000D+01    0.854065D+00    0.000000D+00    0.126564D+00
   0    84    0.100000D+01    0.854066D+00    0.000000D+00    0.126562D+00
   0    85    0.100000D+01    0.854066D+00    0.000000D+00    0.126560D+00
   0    86    0.100000D+01    0.854067D+00    0.000000D+00    0.126559D+00
   0    87    0.100000D+01    0.854068D+00    0.000000D+00    0.126557D+00
   0    88    0.100000D+01    0.854068D+00    0.000000D+00    0.126555D+00
   0    89    0.100000D+01    0.854069D+00    0.000000D+00    0.126553D+00
   0    90    0.100000D+01    0.854070D+00    0.000000D+00    0.126551D+00
   0    91    0.100000D+01    0.854071D+00    0.000000D+00    0.126550D+00
   0    92    0.100000D+01    0.854071D+00    0.000000D+00    0.126548D+00
   0    93    0.100000D+01    0.854072D+00    0.000000D+00    0.126546D+00
   0    94    0.100000D+01    0.854073D+00    0.000000D+00    0.126544D+00
   0    95    0.100000D+01    0.854074D+00    0.000000D+00    0.126542D+00
   0    96    0.100000D+01    0.854075D+00    0.000000D+00    0.126540D+00
   0    97    0.100000D+01    0.854075D+00    0.000000D+00    0.126538D+00
   0    98    0.100000D+01    0.854076D+00    0.000000D+00    0.126536D+00
   0    99    0.100000D+01    0.854077D+00    0.000000D+00    0.126534D+00
   0   100    0.100000D+01    0.854078D+00    0.000000D+00    0.126532D+00
   0   101    0.100000D+01    0.854079D+00    0.000000D+00    0.126530D+00
   0   102    0.100000D+01    0.854079D+00    0.000000D+00    0.126528D+00
   0   103    0.100000D+01    0.854080D+00    0.000000D+00    0.126527D+00
   0   104    0.100000D+01    0.854080D+00    0.000000D+00    0.126525D+00
   0   105    0.100000D+01    0.854081D+00    0.000000D+00    0.126524D+00
   0   106    0.100000D+01    0.854081D+00    0.000000D+00    0.126523D+00
   0   107    0.100000D+01    0.854082D+00    0.000000D+00    0.126522D+00
   0   108    0.100000D+01    0.854082D+00    0.000000D+00    0.126521D+00
   0   109    0.100000D+01    0.854082D+00    0.000000D+00    0.126521D+00
   0   110    0.100000D+01    0.854082D+00    0.000000D+00    0.126520D+00
   0   111    0.100000D+01    0.854083D+00    0.000000D+00    0.126520D+00
   0   112    0.100000D+01    0.854083D+00    0.000000D+00    0.126520D+00
   0   113    0.100000D+01    0.854083D+00    0.000000D+00    0.126520D+00
   0   114    0.100000D+01    0.854083D+00    0.000000D+00    0.126520D+00
   0   115    0.100000D+01    0.854083D+00    0.000000D+00    0.126520D+00
   0   116    0.100000D+01    0.854083D+00    0.000000D+00    0.126520D+00
   0   117    0.100000D+01    0.854083D+00    0.000000D+00    0.126520D+00
   0   118    0.100000D+01    0.854083D+00    0.000000D+00    0.126520D+00
   0   119    0.100000D+01    0.854082D+00    0.000000D+00    0.126520D+00
   0   120    0.100000D+01    0.854082D+00    0.000000D+00    0.126520D+00
   0   121    0.100000D+01    0.854082D+00    0.000000D+00    0.126521D+00
   0   122    0.100000D+01    0.854082D+00    0.000000D+00    0.126521D+00
   0   123    0.100000D+01    0.854082D+00    0.000000D+00    0.126521D+00
   0   124    0.100000D+01    0.854082D+00    0.000000D+00    0.126521D+00
   0   125    0.100000D+01    0.854082D+00    0.000000D+00    0.126522D+00
   0   126    0.100000D+01    0.854082D+00    0.000000D+00    0.126522D+00
   0   127    0.100000D+01    0.854082D+00    0.000000D+00    0.126522D+00
   0   128    0.100000D+01    0.854082D+00    0.000000D+00    0.126522D+00
   0   129    0.100000D+01    0.854082D+00    0.000000D+00    0.126523D+00
   0   130    0.100000D+01    0.854081D+00    0.000000D+00    0.126523D+00
   0   131    0.100000D+01    0.854081D+00    0.000000D+00    0.126523D+00
   0   132    0.100000D+01    0.854081D+00    0.000000D+00    0.126523D+00
   0   133    0.100000D+01    0.854081D+00    0.000000D+00    0.126524D+00
   0   134    0.100000D+01    0.854081D+00    0.000000D+00    0.126524D+00
   0   135    0.100000D+01    0.854081D+00    0.000000D+00    0.126524D+00
   0   136    0.100000D+01    0.854081D+00    0.000000D+00    0.126524D+00
   0   137    0.100000D+01    0.854081D+00    0.000000D+00    0.126525D+00
   0   138    0.100000D+01    0.854081D+00    0.000000D+00    0.126525D+00
   0   139    0.100000D+01    0.854081D+00    0.000000D+00    0.126525D+00
   0   140    0.100000D+01    0.854080D+00    0.000000D+00    0.126525D+00
   0   141    0.100000D+01    0.854080D+00    0.000000D+00    0.126525D+00
   0   142    0.100000D+01    0.854080D+00    0.000000D+00    0.126526D+00
   0   143    0.100000D+01    0.854080D+00    0.000000D+00    0.126526D+00
   0   144    0.100000D+01    0.854080D+00    0.000000D+00    0.126526D+00
   0   145    0.100000D+01    0.854080D+00    0.000000D+00    0.126526D+00
   0   146    0.100000D+01    0.854080D+00    0.000000D+00    0.126526D+00
   0   147    0.100000D+01    0.854080D+00    0.000000D+00    0.126527D+00
   0   148    0.100000D+01    0.854080D+00    0.000000D+00    0.126527D+00
   0   149    0.100000D+01    0.854080D+00    0.000000D+00    0.126527D+00
   0   150    0.100000D+01    0.854079D+00    0.000000D+00    0.126528D+00
   0   151    0.100000D+01    0.854079D+00    0.000000D+00    0.126528D+00
   0   152    0.100000D+01    0.854079D+00    0.000000D+00    0.126529D+00
   0   153    0.100000D+01    0.854079D+00    0.000000D+00    0.126529D+00
   0   154    0.100000D+01    0.854079D+00    0.000000D+00    0.126530D+00
   0   155    0.100000D+01    0.854078D+00    0.000000D+00    0.126530D+00
   0   156    0.100000D+01    0.854078D+00    0.000000D+00    0.126531D+00
   0   157    0.100000D+01    0.854078D+00    0.000000D+00    0.126532D+00
   0   158    0.100000D+01    0.854078D+00    0.000000D+00    0.126532D+00
   0   159    0.100000D+01    0.854077D+00    0.000000D+00    0.126533D+00
   0   160    0.100000D+01    0.854077D+00    0.000000D+00    0.126533D+00
   0   161    0.100000D+01    0.854077D+00    0.000000D+00    0.126534D+00
   0   162    0.100000D+01    0.854077D+00    0.000000D+00    0.126534D+00
   0   163    0.100000D+01    0.854077D+00    0.000000D+00    0.126534D+00
   0   164    0.100000D+01    0.854077D+00    0.000000D+00    0.126534D+00
   0   165    0.100000D+01    0.854077D+00    0.000000D+00    0.126534D+00
   0   166    0.100000D+01    0.854077D+00    0.000000D+00    0.126534D+00
   0   167    0.100000D+01    0.854077D+00    0.000000D+00    0.126534D+00
   0   168    0.100000D+01    0.854077D+00    0.000000D+00    0.126534D+00
   0   169    0.100000D+01    0.854077D+00    0.000000D+00    0.126533D+00
   0   170    0.100000D+01    0.854077D+00    0.000000D+00    0.126533D+00
   0   171    0.100000D+01    0.854078D+00    0.000000D+00    0.126532D+00
   0   172    0.100000D+01    0.854078D+00    0.000000D+00    0.126532D+00
   0   173    0.100000D+01    0.854078D+00    0.000000D+00    0.126531D+00
   0   174    0.100000D+01    0.854078D+00    0.000000D+00    0.126531D+00
   0   175    0.100000D+01    0.854078D+00    0.000000D+00    0.126530D+00
   0   176    0.100000D+01    0.854079D+00    0.000000D+00    0.126530D+00
   0   177    0.100000D+01    0.854079D+00    0.000000D+00    0.126530D+00
   0   178    0.100000D+01    0.854079D+00    0.000000D+00    0.126529D+00
   0   179    0.100000D+01    0.854079D+00    0.000000D+00    0.126529D+00
   0   180    0.100000D+01    0.854079D+00    0.000000D+00    0.126529D+00
   0   181    0.100000D+01    0.854079D+00    0.000000D+00    0.126529D+00
   0   182    0.100000D+01    0.854079D+00    0.000000D+00    0.126529D+00
   0   183    0.100000D+01    0.854079D+00    0.000000D+00    0.126529D+00
   0   184    0.100000D+01    0.854079D+00    0.000000D+00    0.126529D+00
   0   185    0.100000D+01    0.854079D+00    0.000000D+00    0.126529D+00
   0   186    0.100000D+01    0.854079D+00    0.000000D+00    0.126528D+00
   0   187    0.100000D+01    0.854079D+00    0.000000D+00    0.126528D+00
   0   188    0.100000D+01    0.854079D+00    0.000000D+00    0.126528D+00
   0   189    0.100000D+01    0.854079D+00    0.000000D+00    0.126528D+00
   0   190    0.100000D+01    0.854079D+00    0.000000D+00    0.126528D+00
   0   191    0.100000D+01    0.854079D+00    0.000000D+00    0.126528D+00
   0   192    0.100000D+01    0.854080D+00    0.000000D+00    0.126527D+00
   0   193    0.100000D+01    0.854080D+00    0.000000D+00    0.126527D+00
   0   194    0.100000D+01    0.854080D+00    0.000000D+00    0.126527D+00
   0   195    0.100000D+01    0.854080D+00    0.000000D+00    0.126526D+00
   0   196    0.100000D+01    0.854080D+00    0.000000D+00    0.126525D+00
   0   197    0.100000D+01    0.854081D+00    0.000000D+00    0.126525D+00
   0   198    0.100000D+01    0.854081D+00    0.000000D+00    0.126524D+00
   0   199    0.100000D+01    0.854081D+00    0.000000D+00    0.126523D+00
   0   200    0.100000D+01    0.854082D+00    0.000000D+00    0.126522D+00
   0   201    0.100000D+01    0.854082D+00    0.000000D+00    0.126522D+00
   0   202    0.100000D+01    0.854082D+00    0.000000D+00    0.126521D+00
   0   203    0.100000D+01    0.854082D+00    0.000000D+00    0.126521D+00
   0   204    0.100000D+01    0.854083D+00    0.000000D+00    0.126520D+00
   0   205    0.100000D+01    0.854083D+00    0.000000D+00    0.126520D+00
   0   206    0.100000D+01    0.854083D+00    0.000000D+00    0.126520D+00
   0   207    0.100000D+01    0.854083D+00    0.000000D+00    0.126520D+00
   0   208    0.100000D+01    0.854082D+00    0.000000D+00    0.126521D+00
   0   209    0.100000D+01    0.854082D+00    0.000000D+00    0.126521D+00
   0   210    0.100000D+01    0.854082D+00    0.000000D+00    0.126523D+00
   0   211    0.100000D+01    0.854081D+00    0.000000D+00    0.126524D+00
   0   212    0.100000D+01    0.854080D+00    0.000000D+00    0.126526D+00
   0   213    0.100000D+01    0.854079D+00    0.000000D+00    0.126528D+00
   0   214    0.100000D+01    0.854078D+00    0.000000D+00    0.126531D+00
   0   215    0.100000D+01    0.854077D+00    0.000000D+00    0.126534D+00
   0   216    0.100000D+01    0.854075D+00    0.000000D+00    0.126538D+00
   0   217    0.100000D+01    0.854074D+00    0.000000D+00    0.126542D+00
   0   218    0.100000D+01    0.854072D+00    0.000000D+00    0.126546D+00
   0   219    0.100000D+01    0.854070D+00    0.000000D+00    0.126551D+00
   0   220    0.100000D+01    0.854068D+00    0.000000D+00    0.126556D+00
   0   221    0.100000D+01    0.854066D+00    0.000000D+00    0.126561D+00
   0   222    0.100000D+01    0.854064D+00    0.000000D+00    0.126567D+00
   0   223    0.100000D+01    0.854061D+00    0.000000D+00    0.126573D+00
   0   224    0.100000D+01    0.854059D+00    0.000000D+00    0.126579D+00
   0   225    0.100000D+01    0.854056D+00    0.000000D+00    0.126585D+00
   0   226    0.100000D+01    0.854054D+00    0.000000D+00    0.126591D+00
   0   227    0.100000D+01    0.854051D+00    0.000000D+00    0.126598D+00
   0   228    0.100000D+01    0.854048D+00    0.000000D+00    0.126604D+00
   0   229    0.100000D+01    0.854046D+00    0.000000D+00    0.126610D+00
   0   230    0.100000D+01    0.854044D+00    0.000000D+00    0.126616D+00
   0   231    0.100000D+01    0.854041D+00    0.000000D+00    0.126622D+00
   0   232    0.100000D+01    0.854039D+00    0.000000D+00    0.126627D+00
   0   233    0.100000D+01    0.854037D+00    0.000000D+00    0.126632D+00
   0   234    0.100000D+01    0.854035D+00    0.000000D+00    0.126637D+00
   0   235    0.100000D+01    0.854034D+00    0.000000D+00    0.126641D+00
   0   236    0.100000D+01    0.854032D+00    0.000000D+00    0.126644D+00
   0   237    0.100000D+01    0.854031D+00    0.000000D+00    0.126647D+00
   0   238    0.100000D+01    0.854030D+00    0.000000D+00    0.126649D+00
   0   239    0.100000D+01    0.854029D+00    0.000000D+00    0.126651D+00
   0   240    0.100000D+01    0.854029D+00    0.000000D+00    0.126653D+00
   0   241    0.100000D+01    0.854028D+00    0.000000D+00    0.126653D+00
   0   242    0.100000D+01    0.854028D+00    0.000000D+00    0.126654D+00
   0   243    0.100000D+01    0.854028D+00    0.000000D+00    0.126654D+00
   0   244    0.100000D+01    0.854028D+00    0.000000D+00    0.126654D+00
   0   245    0.100000D+01    0.854028D+00    0.000000D+00    0.126653D+00
   0   246    0.100000D+01    0.854029D+00    0.000000D+00    0.126653D+00
   0   247    0.100000D+01    0.854029D+00    0.000000D+00    0.126652D+00
   0   248    0.100000D+01    0.854030D+00    0.000000D+00    0.126651D+00
   0   249    0.100000D+01    0.854030D+00    0.000000D+00    0.126649D+00
   0   250    0.100000D+01    0.854031D+00    0.000000D+00    0.126648D+00
   0   251    0.100000D+01    0.854031D+00    0.000000D+00    0.126646D+00
   0   252    0.100000D+01    0.854032D+00    0.000000D+00    0.126644D+00
   0   253    0.100000D+01    0.854034D+00    0.000000D+00    0.126641D+00
   0   254    0.100000D+01    0.854035D+00    0.000000D+00    0.126637D+00
   0   255    0.100000D+01    0.854037D+00    0.000000D+00    0.126633D+00
   0   256    0.100000D+01    0.854038D+00    0.000000D+00    0.126629D+00
   0   257    0.100000D+01    0.854041D+00    0.000000D+00    0.126623D+00
   0   258    0.100000D+01    0.854043D+00    0.000000D+00    0.126618D+00
   0   259    0.100000D+01    0.854046D+00    0.000000D+00    0.126611D+00
   0   260    0.100000D+01    0.854049D+00    0.000000D+00    0.126604D+00
   0   261    0.100000D+01    0.854052D+00    0.000000D+00    0.126597D+00
   0   262    0.100000D+01    0.854055D+00    0.000000D+00    0.126589D+00
   0   263    0.100000D+01    0.854058D+00    0.000000D+00    0.126582D+00
   0   264    0.100000D+01    0.854060D+00    0.000000D+00    0.126575D+00
   0   265    0.100000D+01    0.854063D+00    0.000000D+00    0.126568D+00
   0   266    0.100000D+01    0.854065D+00    0.000000D+00    0.126563D+00
   0   267    0.100000D+01    0.854067D+00    0.000000D+00    0.126559D+00
   0   268    0.100000D+01    0.854068D+00    0.000000D+00    0.126556D+00
   0   269    0.100000D+01    0.854069D+00    0.000000D+00    0.126555D+00
   0   270    0.100000D+01    0.854068D+00    0.000000D+00    0.126555D+00
   0   271    0.100000D+01    0.854068D+00    0.000000D+00    0.126557D+00
   0   272    0.100000D+01    0.854066D+00    0.000000D+00    0.126561D+00
   0   273    0.100000D+01    0.854064D+00    0.000000D+00    0.126566D+00
   0   274    0.100000D+01    0.854062D+00    0.000000D+00    0.126572D+00
   0   275    0.100000D+01    0.854059D+00    0.000000D+00    0.126579D+00
   0   276    0.100000D+01    0.854056D+00    0.000000D+00    0.126586D+00
   0   277    0.100000D+01    0.854053D+00    0.000000D+00    0.126594D+00
   0   278    0.100000D+01    0.854050D+00    0.000000D+00    0.126601D+00
   0   279    0.100000D+01    0.854047D+00    0.000000D+00    0.126607D+00
   0   280    0.100000D+01    0.854045D+00    0.000000D+00    0.126613D+00
   0   281    0.100000D+01    0.854043D+00    0.000000D+00    0.126617D+00
   0   282    0.100000D+01    0.854042D+00    0.000000D+00    0.126620D+00
   0   283    0.100000D+01    0.854041D+00    0.000000D+00    0.126622D+00
   0   284    0.100000D+01    0.854041D+00    0.000000D+00    0.126623D+00
   0   285    0.100000D+01    0.854041D+00    0.000000D+00    0.126622D+00
   0   286    0.100000D+01    0.854042D+00    0.000000D+00    0.126621D+00
   0   287    0.100000D+01    0.854043D+00    0.000000D+00    0.126619D+00
   0   288    0.100000D+01    0.854044D+00    0.000000D+00    0.126616D+00
   0   289    0.100000D+01    0.854045D+00    0.000000D+00    0.126612D+00
   0   290    0.100000D+01    0.854047D+00    0.000000D+00    0.126608D+00
   0   291    0.100000D+01    0.854049D+00    0.000000D+00    0.126604D+00
   0   292    0.100000D+01    0.854050D+00    0.000000D+00    0.126599D+00
   0   293    0.100000D+01    0.854053D+00    0.000000D+00    0.126594D+00
   0   294    0.100000D+01    0.854055D+00    0.000000D+00    0.126588D+00
   0   295    0.100000D+01    0.854057D+00    0.000000D+00    0.126582D+00
   0   296    0.100000D+01    0.854060D+00    0.000000D+00    0.126575D+00
   0   297    0.100000D+01    0.854063D+00    0.000000D+00    0.126568D+00
   0   298    0.100000D+01    0.854066D+00    0.000000D+00    0.126561D+00
   0   299    0.100000D+01    0.854069D+00    0.000000D+00    0.126554D+00
   0   300    0.100000D+01    0.854072D+00    0.000000D+00    0.126547D+00
   0   301    0.100000D+01    0.854074D+00    0.000000D+00    0.126540D+00
   0   302    0.100000D+01    0.854076D+00    0.000000D+00    0.126536D+00
   0   303    0.100000D+01    0.854077D+00    0.000000D+00    0.126533D+00
   0   304    0.100000D+01    0.854078D+00    0.000000D+00    0.126532D+00
   0   305    0.100000D+01    0.854077D+00    0.000000D+00    0.126535D+00
   0   306    0.100000D+01    0.854074D+00    0.000000D+00    0.126540D+00
   0   307    0.100000D+01    0.854071D+00    0.000000D+00    0.126548D+00
   0   308    0.100000D+01    0.854067D+00    0.000000D+00    0.126559D+00
   0   309    0.100000D+01    0.854061D+00    0.000000D+00    0.126572D+00
   0   310    0.100000D+01    0.854055D+00    0.000000D+00    0.126588D+00
   0   311    0.100000D+01    0.854048D+00    0.000000D+00    0.126605D+00
   0   312    0.100000D+01    0.854041D+00    0.000000D+00    0.126622D+00
   0   313    0.100000D+01    0.854034D+00    0.000000D+00    0.126640D+00
   0   314    0.100000D+01    0.854027D+00    0.000000D+00    0.126657D+00
   0   315    0.100000D+01    0.854020D+00    0.000000D+00    0.126674D+00
   0   316    0.100000D+01    0.854014D+00    0.000000D+00    0.126689D+00
   0   317    0.100000D+01    0.854008D+00    0.000000D+00    0.126703D+00
   0   318    0.100000D+01    0.854003D+00    0.000000D+00    0.126715D+00
   0   319    0.100000D+01    0.853999D+00    0.000000D+00    0.126726D+00
   0   320    0.100000D+01    0.853995D+00    0.000000D+00    0.126735D+00
   0   321    0.100000D+01    0.853992D+00    0.000000D+00    0.126742D+00
   0   322    0.100000D+01    0.853990D+00    0.000000D+00    0.126748D+00
   0   323    0.100000D+01    0.853988D+00    0.000000D+00    0.126752D+00
   0   324    0.100000D+01    0.853988D+00    0.000000D+00    0.126754D+00
   0   325    0.100000D+01    0.853987D+00    0.000000D+00    0.126755D+00
   0   326    0.100000D+01    0.853987D+00    0.000000D+00    0.126756D+00
   0   327    0.100000D+01    0.853987D+00    0.000000D+00    0.126755D+00
   0   328    0.100000D+01    0.853987D+00    0.000000D+00    0.126755D+00
   0   329    0.100000D+01    0.853987D+00    0.948280D-11    0.126755D+00
   0   330    0.100000D+01    0.853987D+00    0.948280D-11    0.126756D+00
   0   331    0.100000D+01    0.853986D+00    0.948280D-11    0.126757D+00
   0   332    0.100000D+01    0.853985D+00    0.284484D-10    0.126759D+00
   0   333    0.100000D+01    0.853985D+00    0.758624D-10    0.126762D+00
   0   334    0.100000D+01    0.853984D+00    0.948280D-10    0.126764D+00
   0   335    0.100000D+01    0.853983D+00    0.256036D-09    0.126764D+00
   0   336    0.100000D+01    0.853984D+00    0.445692D-09    0.126763D+00
   0   337    0.100000D+01    0.853985D+00    0.105259D-08    0.126760D+00
   0   338    0.100000D+01    0.853987D+00    0.160259D-08    0.126755D+00
   0   339    0.100000D+01    0.853991D+00    0.242760D-08    0.126746D+00
   0   340    0.100000D+01    0.853995D+00    0.698882D-08    0.126736D+00
   0   341    0.100000D+01    0.854000D+00    0.923625D-08    0.126724D+00
   0   342    0.100000D+01    0.854005D+00    0.153527D-07    0.126711D+00
   0   343    0.100000D+01    0.854009D+00    0.414114D-07    0.126700D+00
   0   344    0.100000D+01    0.854013D+00    0.866443D-07    0.126692D+00
   0   345    0.100000D+01    0.854014D+00    0.178400D-06    0.126689D+00
   0   346    0.100000D+01    0.854012D+00    0.226544D-06    0.126693D+00
   0   347    0.100000D+01    0.854008D+00    0.678011D-06    0.126704D+00
   0   348    0.100000D+01    0.854001D+00    0.119523D-05    0.126721D+00
   0   349    0.100000D+01    0.853992D+00    0.209803D-05    0.126744D+00
   0   350    0.100000D+01    0.853980D+00    0.464918D-05    0.126772D+00
   0   351    0.100000D+01    0.853968D+00    0.100135D-04    0.126803D+00
   0   352    0.100000D+01    0.853954D+00    0.163935D-04    0.126837D+00
   0   353    0.100000D+01    0.853938D+00    0.268258D-04    0.126875D+00
   0   354    0.100000D+01    0.853921D+00    0.669786D-04    0.126918D+00
   0   355    0.100000D+01    0.853902D+00    0.112122D-03    0.126965D+00
   0   356    0.100000D+01    0.853882D+00    0.243636D-03    0.127014D+00
   0   357    0.100000D+01    0.853864D+00    0.319032D-03    0.127058D+00
   0   358    0.100000D+01    0.853850D+00    0.663010D-03    0.127093D+00
   0   359    0.999999D+00    0.853842D+00    0.133089D-02    0.127114D+00
   0   360    0.999998D+00    0.853838D+00    0.235880D-02    0.127124D+00
   0   361    0.999997D+00    0.853834D+00    0.380015D-02    0.127132D+00
   0   362    0.999993D+00    0.853826D+00    0.132746D-01    0.127153D+00
   0   363    0.999987D+00    0.853810D+00    0.172296D-01    0.127193D+00
   0   364    0.999975D+00    0.853787D+00    0.463666D-01    0.127250D+00
   0   365    0.999953D+00    0.853762D+00    0.835371D-01    0.127313D+00
   0   366    0.999909D+00    0.853735D+00    0.156400D+00    0.127380D+00
   0   367    0.999823D+00    0.853700D+00    0.271218D+00    0.127469D+00
   0   368    0.999659D+00    0.853625D+00    0.585818D+00    0.127655D+00
   0   369    0.999337D+00    0.853458D+00    0.135520D+01    0.128069D+00
   0   370    0.998733D+00    0.853085D+00    0.167941D+01    0.129003D+00
   0   371    0.997532D+00    0.852328D+00    0.503448D+01    0.130869D+00
   0   372    0.995329D+00    0.850768D+00    0.855757D+01    0.134728D+00
   0   373    0.991003D+00    0.847763D+00    0.149789D+02    0.142025D+00
   0   374    0.982703D+00    0.841710D+00    0.321556D+02    0.155994D+00
   0   375    0.966352D+00    0.830516D+00    0.540563D+02    0.179950D+00
   0   376    0.935302D+00    0.809058D+00    0.885193D+02    0.220054D+00
   0   377    0.875771D+00    0.768210D+00    0.206841D+03    0.275257D+00
   0   378    0.772123D+00    0.693089D+00    0.266183D+03    0.334659D+00
   0   379    0.605250D+00    0.566909D+00    0.462926D+03    0.381026D+00
   0   380    0.406776D+00    0.403986D+00    0.484481D+03    0.408237D+00
   0   381    0.234447D+00    0.245814D+00    0.266249D+03    0.421831D+00
   0   382    0.121134D+00    0.133767D+00    0.248178D+03    0.428261D+00
   0   383    0.589598D-01    0.677548D-01    0.889343D+02    0.431222D+00
   0   384    0.276293D-01    0.324621D-01    0.621305D+02    0.432633D+00
   0   385    0.129121D-01    0.152646D-01    0.220020D+02    0.433270D+00
   0   386    0.597899D-02    0.710343D-02    0.120915D+02    0.433568D+00
   0   387    0.278907D-02    0.329909D-02    0.598106D+01    0.433704D+00
   0   388    0.128647D-02    0.152704D-02    0.294252D+01    0.433768D+00
   0   389    0.596819D-03    0.707690D-03    0.132195D+01    0.433797D+00
   0   390    0.276747D-03    0.324500D-03    0.522249D+00    0.433811D+00
   0   391    0.126626D-03    0.150638D-03    0.243514D+00    0.433817D+00
   0   392    0.579859D-04    0.690663D-04    0.127532D+00    0.433820D+00
   0   393    0.267984D-04    0.320485D-04    0.593023D-01    0.433821D+00
   0   394    0.123058D-04    0.147321D-04    0.228920D-01    0.433822D+00
   0   395    0.573981D-05    0.678754D-05    0.118975D-01    0.433822D+00
   0   396    0.264583D-05    0.314103D-05    0.441200D-02    0.433822D+00
   0   397    0.123013D-05    0.145025D-05    0.190283D-02    0.433822D+00