variables =  "IG"  "JG"  "PHI"  "Temp."  "Latent_heat"  "mm"
ZONE  I=  401  J=  101
   0     0    0.100000D+01    0.423212D+00    0.000000D+00    0.405227D+00
   0     1    0.100000D+01    0.423212D+00    0.000000D+00    0.405227D+00
   0     2    0.100000D+01    0.426172D+00    0.000000D+00    0.404854D+00
   0     3    0.100000D+01    0.432031D+00    0.000000D+00    0.404101D+00
   0     4    0.100000D+01    0.440670D+00    0.000000D+00    0.402957D+00
   0     5    0.100000D+01    0.451918D+00    0.000000D+00    0.401405D+00
   0     6    0.100000D+01    0.465551D+00    0.000000D+00    0.399420D+00
   0     7    0.100000D+01    0.481309D+00    0.000000D+00    0.396974D+00
   0     8    0.100000D+01    0.498894D+00    0.000000D+00    0.394030D+00
   0     9    0.100000D+01    0.517985D+00    0.000000D+00    0.390545D+00
   0    10    0.100000D+01    0.538250D+00    0.000000D+00    0.386471D+00
   0    11    0.100000D+01    0.559348D+00    0.000000D+00    0.381752D+00
   0    12    0.100000D+01    0.580944D+00    0.000000D+00    0.376328D+00
   0    13    0.100000D+01    0.602715D+00    0.000000D+00    0.370138D+00
   0    14    0.100000D+01    0.624361D+00    0.000000D+00    0.363119D+00
   0    15    0.100000D+01    0.645605D+00    0.000000D+00    0.355212D+00
   0    16    0.100000D+01    0.666205D+00    0.000000D+00    0.346369D+00
   0    17    0.100000D+01    0.685953D+00    0.000000D+00    0.336558D+00
   0    18    0.100000D+01    0.704677D+00    0.000000D+00    0.325774D+00
   0    19    0.100000D+01    0.722247D+00    0.000000D+00    0.314051D+00
   0    20    0.100000D+01    0.738565D+00    0.000000D+00    0.301465D+00
   0    21    0.100000D+01    0.753573D+00    0.000000D+00    0.288147D+00
   0    22    0.100000D+01    0.767244D+00    0.000000D+00    0.274284D+00
   0    23    0.100000D+01    0.779580D+00    0.000000D+00    0.260111D+00
   0    24    0.100000D+01    0.790611D+00    0.000000D+00    0.245898D+00
   0    25    0.100000D+01    0.800385D+00    0.000000D+00    0.231932D+00
   0    26    0.100000D+01    0.808968D+00    0.000000D+00    0.218491D+00
   0    27    0.100000D+01    0.816441D+00    0.000000D+00    0.205818D+00
   0    28    0.100000D+01    0.822890D+00    0.000000D+00    0.194108D+00
   0    29    0.100000D+01    0.828408D+00    0.000000D+00    0.183492D+00
   0    30    0.100000D+01    0.833090D+00    0.000000D+00    0.174042D+00
   0    31    0.100000D+01    0.837029D+00    0.000000D+00    0.165768D+00
   0    32    0.100000D+01    0.840316D+00    0.000000D+00    0.158638D+00
   0    33    0.100000D+01    0.843036D+00    0.000000D+00    0.152579D+00
   0    34    0.100000D+01    0.845268D+00    0.000000D+00    0.147499D+00
   0    35    0.100000D+01    0.847087D+00    0.000000D+00    0.143292D+00
   0    36    0.100000D+01    0.848555D+00    0.000000D+00    0.139847D+00
   0    37    0.100000D+01    0.849733D+00    0.000000D+00    0.137057D+00
   0    38    0.100000D+01    0.850669D+00    0.000000D+00    0.134818D+00
   0    39    0.100000D+01    0.851409D+00    0.000000D+00    0.133039D+00
   0    40    0.100000D+01    0.851988D+00    0.000000D+00    0.131637D+00
   0    41    0.100000D+01    0.852439D+00    0.000000D+00    0.130542D+00
   0    42    0.100000D+01    0.852788D+00    0.000000D+00    0.129693D+00
   0    43    0.100000D+01    0.853056D+00    0.000000D+00    0.129039D+00
   0    44    0.100000D+01    0.853261D+00    0.000000D+00    0.128539D+00
   0    45    0.100000D+01    0.853416D+00    0.000000D+00    0.128157D+00
   0    46    0.100000D+01    0.853534D+00    0.000000D+00    0.127868D+00
   0    47    0.100000D+01    0.853624D+00    0.000000D+00    0.127648D+00
   0    48    0.100000D+01    0.853691D+00    0.000000D+00    0.127482D+00
   0    49    0.100000D+01    0.853743D+00    0.000000D+00    0.127356D+00
   0    50    0.100000D+01    0.853782D+00    0.000000D+00    0.127260D+00
   0    51    0.100000D+01    0.853812D+00    0.000000D+00    0.127185D+00
   0    52    0.100000D+01    0.853836D+00    0.000000D+00    0.127127D+00
   0    53    0.100000D+01    0.853855D+00    0.000000D+00    0.127081D+00
   0    54    0.100000D+01    0.853870D+00    0.000000D+00    0.127043D+00
   0    55    0.100000D+01    0.853883D+00    0.000000D+00    0.127013D+00
   0    56    0.100000D+01    0.853893D+00    0.000000D+00    0.126987D+00
   0    57    0.100000D+01    0.853902D+00    0.000000D+00    0.126965D+00
   0    58    0.100000D+01    0.853910D+00    0.000000D+00    0.126946D+00
   0    59    0.100000D+01    0.853916D+00    0.000000D+00    0.126930D+00
   0    60    0.100000D+01    0.853922D+00    0.000000D+00    0.126916D+00
   0    61    0.100000D+01    0.853927D+00    0.000000D+00    0.126904D+00
   0    62    0.100000D+01    0.853931D+00    0.000000D+00    0.126894D+00
   0    63    0.100000D+01    0.853934D+00    0.000000D+00    0.126885D+00
   0    64    0.100000D+01    0.853937D+00    0.000000D+00    0.126878D+00
   0    65    0.100000D+01    0.853940D+00    0.000000D+00    0.126871D+00
   0    66    0.100000D+01    0.853942D+00    0.000000D+00    0.126866D+00
   0    67    0.100000D+01    0.853944D+00    0.000000D+00    0.126860D+00
   0    68    0.100000D+01    0.853946D+00    0.000000D+00    0.126855D+00
   0    69    0.100000D+01    0.853949D+00    0.000000D+00    0.126850D+00
   0    70    0.100000D+01    0.853951D+00    0.000000D+00    0.126845D+00
   0    71    0.100000D+01    0.853953D+00    0.000000D+00    0.126840D+00
   0    72    0.100000D+01    0.853955D+00    0.000000D+00    0.126834D+00
   0    73    0.100000D+01    0.853957D+00    0.000000D+00    0.126829D+00
   0    74    0.100000D+01    0.853960D+00    0.000000D+00    0.126823D+00
   0    75    0.100000D+01    0.853962D+00    0.000000D+00    0.126817D+00
   0    76    0.100000D+01    0.853964D+00    0.000000D+00    0.126811D+00
   0    77    0.100000D+01    0.853966D+00    0.000000D+00    0.126806D+00
   0    78    0.100000D+01    0.853968D+00    0.000000D+00    0.126802D+00
   0    79    0.100000D+01    0.853969D+00    0.000000D+00    0.126799D+00
   0    80    0.100000D+01    0.853970D+00    0.000000D+00    0.126797D+00
   0    81    0.100000D+01    0.853971D+00    0.000000D+00    0.126796D+00
   0    82    0.100000D+01    0.853970D+00    0.000000D+00    0.126796D+00
   0    83    0.100000D+01    0.853970D+00    0.000000D+00    0.126798D+00
   0    84    0.100000D+01    0.853969D+00    0.000000D+00    0.126800D+00
   0    85    0.100000D+01    0.853968D+00    0.000000D+00    0.126803D+00
   0    86    0.100000D+01    0.853967D+00    0.000000D+00    0.126806D+00
   0    87    0.100000D+01    0.853965D+00    0.000000D+00    0.126809D+00
   0    88    0.100000D+01    0.853965D+00    0.000000D+00    0.126810D+00
   0    89    0.100000D+01    0.853964D+00    0.000000D+00    0.126811D+00
   0    90    0.100000D+01    0.853965D+00    0.000000D+00    0.126811D+00
   0    91    0.100000D+01    0.853965D+00    0.000000D+00    0.126809D+00
   0    92    0.100000D+01    0.853967D+00    0.000000D+00    0.126805D+00
   0    93    0.100000D+01    0.853969D+00    0.000000D+00    0.126799D+00
   0    94    0.100000D+01    0.853972D+00    0.000000D+00    0.126792D+00
   0    95    0.100000D+01    0.853976D+00    0.000000D+00    0.126784D+00
   0    96    0.100000D+01    0.853980D+00    0.000000D+00    0.126774D+00
   0    97    0.100000D+01    0.853984D+00    0.000000D+00    0.126763D+00
   0    98    0.100000D+01    0.853989D+00    0.000000D+00    0.126751D+00
   0    99    0.100000D+01    0.853994D+00    0.000000D+00    0.126739D+00
   0   100    0.100000D+01    0.853999D+00    0.000000D+00    0.126727D+00
   0   101    0.100000D+01    0.854004D+00    0.000000D+00    0.126715D+00
   0   102    0.100000D+01    0.854009D+00    0.000000D+00    0.126703D+00
   0   103    0.100000D+01    0.854013D+00    0.000000D+00    0.126691D+00
   0   104    0.100000D+01    0.854017D+00    0.000000D+00    0.126681D+00
   0   105    0.100000D+01    0.854021D+00    0.000000D+00    0.126672D+00
   0   106    0.100000D+01    0.854024D+00    0.000000D+00    0.126664D+00
   0   107    0.100000D+01    0.854026D+00    0.000000D+00    0.126659D+00
   0   108    0.100000D+01    0.854028D+00    0.000000D+00    0.126656D+00
   0   109    0.100000D+01    0.854028D+00    0.000000D+00    0.126655D+00
   0   110    0.100000D+01    0.854027D+00    0.000000D+00    0.126658D+00
   0   111    0.100000D+01    0.854024D+00    0.000000D+00    0.126664D+00
   0   112    0.100000D+01    0.854021D+00    0.000000D+00    0.126673D+00
   0   113    0.100000D+01    0.854016D+00    0.000000D+00    0.126684D+00
   0   114    0.100000D+01    0.854011D+00    0.000000D+00    0.126697D+00
   0   115    0.100000D+01    0.854005D+00    0.000000D+00    0.126711D+00
   0   116    0.100000D+01    0.854000D+00    0.000000D+00    0.126725D+00
   0   117    0.100000D+01    0.853995D+00    0.000000D+00    0.126736D+00
   0   118    0.100000D+01    0.853992D+00    0.000000D+00    0.126744D+00
   0   119    0.100000D+01    0.853990D+00    0.000000D+00    0.126748D+00
   0   120    0.100000D+01    0.853991D+00    0.000000D+00    0.126745D+00
   0   121    0.100000D+01    0.853995D+00    0.000000D+00    0.126736D+00
   0   122    0.100000D+01    0.854001D+00    0.000000D+00    0.126721D+00
   0   123    0.100000D+01    0.854010D+00    0.000000D+00    0.126700D+00
   0   124    0.100000D+01    0.854020D+00    0.000000D+00    0.126674D+00
   0   125    0.100000D+01    0.854031D+00    0.000000D+00    0.126647D+00
   0   126    0.100000D+01    0.854042D+00    0.000000D+00    0.126620D+00
   0   127    0.100000D+01    0.854052D+00    0.000000D+00    0.126596D+00
   0   128    0.100000D+01    0.854059D+00    0.000000D+00    0.126579D+00
   0   129    0.100000D+01    0.854062D+00    0.000000D+00    0.126571D+00
   0   130    0.100000D+01    0.854061D+00    0.948280D-11    0.126572D+00
   0   131    0.100000D+01    0.854056D+00    0.189656D-10    0.126585D+00
   0   132    0.100000D+01    0.854047D+00    0.379312D-10    0.126607D+00
   0   133    0.100000D+01    0.854035D+00    0.758624D-10    0.126638D+00
   0   134    0.100000D+01    0.854020D+00    0.104311D-09    0.126675D+00
   0   135    0.100000D+01    0.854004D+00    0.170690D-09    0.126714D+00
   0   136    0.100000D+01    0.853988D+00    0.464657D-09    0.126753D+00
   0   137    0.100000D+01    0.853974D+00    0.711210D-09    0.126788D+00
   0   138    0.100000D+01    0.853962D+00    0.172587D-08    0.126816D+00
   0   139    0.100000D+01    0.853954D+00    0.325260D-08    0.126837D+00
   0   140    0.100000D+01    0.853949D+00    0.762417D-08    0.126849D+00
   0   141    0.100000D+01    0.853948D+00    0.118156D-07    0.126853D+00
   0   142    0.100000D+01    0.853950D+00    0.251579D-07    0.126847D+00
   0   143    0.100000D+01    0.853955D+00    0.532933D-07    0.126834D+00
   0   144    0.100000D+01    0.853963D+00    0.992090D-07    0.126815D+00
   0   145    0.100000D+01    0.853973D+00    0.155992D-06    0.126790D+00
   0   146    0.100000D+01    0.853984D+00    0.376069D-06    0.126763D+00
   0   147    0.100000D+01    0.853995D+00    0.550239D-06    0.126735D+00
   0   148    0.100000D+01    0.854007D+00    0.148589D-05    0.126707D+00
   0   149    0.100000D+01    0.854017D+00    0.222127D-05    0.126681D+00
   0   150    0.100000D+01    0.854027D+00    0.522979D-05    0.126658D+00
   0   151    0.100000D+01    0.854035D+00    0.800695D-05    0.126637D+00
   0   152    0.100000D+01    0.854043D+00    0.172659D-04    0.126617D+00
   0   153    0.100000D+01    0.854051D+00    0.355848D-04    0.126598D+00
   0   154    0.100000D+01    0.854058D+00    0.434570D-04    0.126580D+00
   0   155    0.100000D+01    0.854064D+00    0.102628D-03    0.126565D+00
   0   156    0.100000D+01    0.854069D+00    0.279192D-03    0.126554D+00
   0   157    0.100000D+01    0.854070D+00    0.472597D-03    0.126551D+00
   0   158    0.999999D+00    0.854068D+00    0.814319D-03    0.126556D+00
   0   159    0.999999D+00    0.854062D+00    0.207542D-02    0.126571D+00
   0   160    0.999998D+00    0.854052D+00    0.385362D-02    0.126596D+00
   0   161    0.999996D+00    0.854039D+00    0.577714D-02    0.126628D+00
   0   162    0.999993D+00    0.854024D+00    0.129746D-01    0.126665D+00
   0   163    0.999985D+00    0.854007D+00    0.262869D-01    0.126707D+00
   0   164    0.999972D+00    0.853985D+00    0.511973D-01    0.126761D+00
   0   165    0.999947D+00    0.853952D+00    0.664398D-01    0.126844D+00
   0   166    0.999897D+00    0.853899D+00    0.177777D+00    0.126976D+00
   0   167    0.999802D+00    0.853816D+00    0.302142D+00    0.127185D+00
   0   168    0.999620D+00    0.853692D+00    0.663045D+00    0.127493D+00
   0   169    0.999267D+00    0.853490D+00    0.125286D+01    0.128008D+00
   0   170    0.998589D+00    0.853114D+00    0.270492D+01    0.128950D+00
   0   171    0.997295D+00    0.852297D+00    0.395809D+01    0.130946D+00
   0   172    0.994747D+00    0.850558D+00    0.914944D+01    0.135259D+00
   0   173    0.989883D+00    0.847140D+00    0.192677D+02    0.143519D+00
   0   174    0.980534D+00    0.840768D+00    0.292827D+02    0.158209D+00
   0   175    0.962869D+00    0.828333D+00    0.439593D+02    0.184638D+00
   0   176    0.928514D+00    0.805437D+00    0.135183D+03    0.225769D+00
   0   177    0.864337D+00    0.759880D+00    0.183515D+03    0.283946D+00
   0   178    0.749790D+00    0.678653D+00    0.285616D+03    0.341618D+00
   0   179    0.577448D+00    0.546359D+00    0.528398D+03    0.385749D+00
   0   180    0.379889D+00    0.380682D+00    0.487274D+03    0.410660D+00
   0   181    0.213691D+00    0.228229D+00    0.297030D+03    0.423015D+00
   0   182    0.110139D+00    0.121184D+00    0.214165D+03    0.428869D+00
   0   183    0.530915D-01    0.605384D-01    0.113978D+03    0.431517D+00
   0   184    0.249257D-01    0.290785D-01    0.555647D+02    0.432754D+00
   0   185    0.116539D-01    0.136973D-01    0.217591D+02    0.433329D+00
   0   186    0.536179D-02    0.639045D-02    0.121609D+02    0.433594D+00
   0   187    0.249752D-02    0.295402D-02    0.452899D+01    0.433717D+00
   0   188    0.115396D-02    0.136260D-02    0.213350D+01    0.433773D+00
   0   189    0.530993D-03    0.628829D-03    0.958404D+00    0.433800D+00
   0   190    0.244145D-03    0.289965D-03    0.562940D+00    0.433812D+00
   0   191    0.111746D-03    0.134428D-03    0.242320D+00    0.433817D+00
   0   192    0.519142D-04    0.615518D-04    0.106063D+00    0.433820D+00
   0   193    0.239730D-04    0.282107D-04    0.398613D-01    0.433821D+00
   0   194    0.109720D-04    0.130360D-04    0.235935D-01    0.433822D+00
   0   195    0.503198D-05    0.597859D-05    0.915555D-02    0.433822D+00
   0   196    0.230098D-05    0.275892D-05    0.402801D-02    0.433822D+00
   0   197    0.106873D-05    0.126781D-05    0.172360D-02    0.433822D+00
   0   198    0.492387D-06    0.584315D-06    0.960003D-03    0.433822D+00
   0   199    0.225773D-06    0.268402D-06    0.522660D-03    0.433822D+00
   0   200    0.104370D-06    0.124355D-06    0.191773D-03    0.433822D+00
   0   201    0.480004D-07    0.570771D-07    0.859058D-04    0.433822D+00
   0   202    0.222624D-07    0.262917D-07    0.443494D-04    0.433822D+00
   0   203    0.102486D-07    0.121927D-07    0.233948D-04    0.433822D+00
   0   204    0.475471D-08    0.560435D-08    0.101731D-04    0.433822D+00
   0   205    0.218932D-08    0.257560D-08    0.471134D-05    0.433822D+00
   0   206    0.100230D-08    0.119015D-08    0.210684D-05    0.433822D+00
   0   207    0.461564D-09    0.546542D-09    0.926128D-06    0.433822D+00
   0   208    0.212879D-09    0.252846D-09    0.447424D-06    0.433822D+00
   0   209    0.978511D-10    0.115760D-09    0.186498D-06    0.433822D+00
   0   210    0.447592D-10    0.532589D-10    0.917358D-07    0.433822D+00
   0   211    0.206378D-10    0.245649D-10    0.314844D-07    0.433822D+00
   0   212    0.954249D-11    0.113139D-10    0.176519D-07    0.433822D+00
   0   213    0.436282D-11    0.519741D-11    0.100824D-07    0.433822D+00
   0   214    0.201842D-11    0.239607D-11    0.415868D-08    0.433822D+00
   0   215    0.937876D-12    0.111137D-11    0.205084D-08    0.433822D+00
   0   216    0.431548D-12    0.509141D-12    0.681117D-09    0.433822D+00
   0   217    0.198154D-12    0.235046D-12    0.321129D-09    0.433822D+00
   0   218    0.914913D-13    0.108447D-12    0.140738D-09    0.433822D+00
   0   219    0.416283D-13    0.496507D-13    0.886371D-10    0.433822D+00
   0   220    0.192996D-13    0.227545D-13    0.288664D-10    0.433822D+00
   0   221    0.888626D-14    0.104800D-13    0.146098D-10    0.433822D+00
   0   222    0.403906D-14    0.480692D-14    0.965068D-11    0.433822D+00
   0   223    0.187343D-14    0.222370D-14    0.283035D-11    0.433822D+00
   0   224    0.855919D-15    0.102240D-14    0.144096D-11    0.433822D+00
   0   225    0.396683D-15    0.471884D-15    0.826605D-12    0.433822D+00
   0   226    0.180913D-15    0.215588D-15    0.364483D-12    0.433822D+00
   0   227    0.835888D-16    0.995822D-16    0.130010D-12    0.433822D+00
   0   228    0.388655D-16    0.460483D-16    0.625687D-13    0.433822D+00
   0   229    0.180424D-16    0.211904D-16    0.336230D-13    0.433822D+00
   0   230    0.832733D-17    0.979020D-17    0.182588D-13    0.433822D+00
   0   231    0.382449D-17    0.452298D-17    0.735659D-14    0.433822D+00
   0   232    0.177184D-17    0.210501D-17    0.352401D-14    0.433822D+00
   0   233    0.819146D-18    0.967379D-18    0.165187D-14    0.433822D+00
   0   234    0.378079D-18    0.447352D-18    0.740716D-15    0.433822D+00
   0   235    0.175247D-18    0.206490D-18    0.305708D-15    0.433822D+00
   0   236    0.802973D-19    0.952114D-19    0.159061D-15    0.433822D+00
   0   237    0.367989D-19    0.438417D-19    0.807304D-16    0.433822D+00
   0   238    0.169700D-19    0.201921D-19    0.268105D-16    0.433822D+00
   0   239    0.776377D-20    0.922503D-20    0.162124D-16    0.433822D+00
   0   240    0.361205D-20    0.425156D-20    0.507041D-17    0.433822D+00
   0   241    0.166378D-20    0.195517D-20    0.291970D-17    0.433822D+00
   0   242    0.773710D-21    0.903781D-21    0.157787D-17    0.433822D+00
   0   243    0.355569D-21    0.417390D-21    0.708408D-18    0.433822D+00
   0   244    0.161761D-21    0.192263D-21    0.298293D-18    0.433822D+00
   0   245    0.747854D-22    0.885730D-22    0.120320D-18    0.433822D+00
   0   246    0.344702D-22    0.407433D-22    0.725062D-19    0.433822D+00
   0   247    0.158982D-22    0.187142D-22    0.347642D-19    0.433822D+00
   0   248    0.728403D-23    0.865175D-23    0.172135D-19    0.433822D+00
   0   249    0.336678D-23    0.395560D-23    0.549393D-20    0.433822D+00
   0   250    0.155534D-23    0.182886D-23    0.306941D-20    0.433822D+00
   0   251    0.716690D-24    0.846008D-24    0.121973D-20    0.433822D+00
   0   252    0.328576D-24    0.389096D-24    0.755035D-21    0.433822D+00
   0   253    0.150670D-24    0.179351D-24    0.300203D-21    0.433822D+00
   0   254    0.701603D-25    0.821953D-25    0.113324D-21    0.433822D+00
   0   255    0.320571D-25    0.376448D-25    0.591935D-22    0.433822D+00
   0   256    0.148063D-25    0.175144D-25    0.291436D-22    0.433822D+00
   0   257    0.678791D-26    0.805921D-26    0.131989D-22    0.433822D+00
   0   258    0.313027D-26    0.369124D-26    0.517666D-23    0.433822D+00
   0   259    0.143722D-26    0.169873D-26    0.271566D-23    0.433822D+00
   0   260    0.661654D-27    0.781060D-27    0.153561D-23    0.433822D+00
   0   261    0.305630D-27    0.360618D-27    0.616904D-24    0.433822D+00
   0   262    0.140990D-27    0.166506D-27    0.299213D-24    0.433822D+00
   0   263    0.646509D-28    0.765136D-28    0.121266D-24    0.433822D+00
   0   264    0.300262D-28    0.354458D-28    0.548247D-25    0.433822D+00
   0   265    0.136336D-28    0.163166D-28    0.325830D-25    0.433822D+00
   0   266    0.629378D-29    0.744794D-29    0.117427D-25    0.433822D+00
   0   267    0.292776D-29    0.344811D-29    0.594378D-26    0.433822D+00
   0   268    0.133730D-29    0.158783D-29    0.254397D-26    0.433822D+00
   0   269    0.615375D-30    0.728007D-30    0.981228D-27    0.433822D+00
   0   270    0.283737D-30    0.334190D-30    0.598786D-27    0.433822D+00
   0   271    0.131259D-30    0.155755D-30    0.225345D-27    0.433822D+00
   0   272    0.608227D-31    0.719815D-31    0.121231D-27    0.433822D+00
   0   273    0.280882D-31    0.332038D-31    0.567999D-28    0.433822D+00
   0   274    0.128611D-31    0.152154D-31    0.213799D-28    0.433822D+00
   0   275    0.591290D-32    0.705099D-32    0.943067D-29    0.433822D+00
   0   276    0.273726D-32    0.323153D-32    0.433757D-29    0.433822D+00
   0   277    0.127054D-32    0.149300D-32    0.265662D-29    0.433822D+00
   0   278    0.582675D-33    0.693680D-33    0.135671D-29    0.433822D+00
   0   279    0.268542D-33    0.315584D-33    0.498347D-30    0.433822D+00
   0   280    0.123419D-33    0.145305D-33    0.240686D-30    0.433822D+00
   0   281    0.573448D-34    0.673666D-34    0.908794D-31    0.433822D+00
   0   282    0.262277D-34    0.310450D-34    0.495256D-31    0.433822D+00
   0   283    0.121675D-34    0.143060D-34    0.175219D-31    0.433822D+00
   0   284    0.553502D-35    0.659006D-35    0.106587D-31    0.433822D+00
   0   285    0.255505D-35    0.302306D-35    0.521721D-32    0.433822D+00
   0   286    0.117863D-35    0.139718D-35    0.240645D-32    0.433822D+00
   0   287    0.539820D-36    0.641295D-36    0.106155D-32    0.433822D+00
   0   288    0.247979D-36    0.294959D-36    0.389487D-33    0.433822D+00
   0   289    0.114051D-36    0.135532D-36    0.186722D-33    0.433822D+00
   0   290    0.520703D-37    0.621581D-37    0.119396D-33    0.433822D+00
   0   291    0.241277D-37    0.288781D-37    0.488733D-34    0.433822D+00
   0   292    0.112395D-37    0.133181D-37    0.173162D-34    0.433822D+00
   0   293    0.520442D-38    0.613077D-38    0.751046D-35    0.433822D+00
   0   294    0.242513D-38    0.283948D-38    0.346766D-35    0.433822D+00
   0   295    0.111457D-38    0.131095D-38    0.187855D-35    0.433822D+00
   0   296    0.512312D-39    0.603363D-39    0.108508D-35    0.433822D+00
   0   297    0.234957D-39    0.276650D-39    0.516967D-36    0.433822D+00
   0   298    0.108167D-39    0.127695D-39    0.169224D-36    0.433822D+00
   0   299    0.495893D-40    0.588649D-40    0.775553D-37    0.433822D+00
   0   300    0.227866D-40    0.272261D-40    0.460144D-37    0.433822D+00
   0   301    0.104036D-40    0.124490D-40    0.257688D-37    0.433822D+00
   0   302    0.484604D-41    0.576185D-41    0.107306D-37    0.433822D+00
   0   303    0.224750D-41    0.265349D-41    0.324800D-38    0.433822D+00
   0   304    0.103917D-41    0.122207D-41    0.164123D-38    0.433822D+00
   0   305    0.479172D-42    0.560293D-42    0.732003D-39    0.433822D+00
   0   306    0.220302D-42    0.259167D-42    0.364796D-39    0.433822D+00
   0   307    0.101568D-42    0.119201D-42    0.149443D-39    0.433822D+00
   0   308    0.465407D-43    0.552230D-43    0.889355D-40    0.433822D+00
   0   309    0.214129D-43    0.251768D-43    0.372225D-40    0.433822D+00
   0   310    0.992870D-44    0.116658D-43    0.217979D-40    0.433822D+00
   0   311    0.455351D-44    0.539267D-44    0.993436D-41    0.433822D+00
   0   312    0.210863D-44    0.249724D-44    0.424349D-41    0.433822D+00
   0   313    0.970917D-45    0.114898D-44    0.178670D-41    0.433822D+00
   0   314    0.445397D-45    0.524113D-45    0.998647D-42    0.433822D+00
   0   315    0.201390D-45    0.239147D-45    0.463072D-42    0.433822D+00
   0   316    0.925121D-46    0.109685D-45    0.160108D-42    0.433822D+00
   0   317    0.425218D-46    0.504374D-46    0.929597D-43    0.433822D+00
   0   318    0.197897D-46    0.234422D-46    0.326090D-43    0.433822D+00
   0   319    0.914261D-47    0.107572D-46    0.175167D-43    0.433822D+00
   0   320    0.423576D-47    0.499097D-47    0.845473D-44    0.433822D+00
   0   321    0.192823D-47    0.230436D-47    0.413067D-44    0.433822D+00
   0   322    0.894182D-48    0.105588D-47    0.134070D-44    0.433822D+00
   0   323    0.413793D-48    0.486182D-48    0.718246D-45    0.433822D+00
   0   324    0.189575D-48    0.223850D-48    0.383675D-45    0.433822D+00
   0   325    0.871412D-49    0.103257D-48    0.205983D-45    0.433822D+00
   0   326    0.403134D-49    0.475863D-49    0.856817D-46    0.433822D+00
   0   327    0.186381D-49    0.220894D-49    0.392106D-46    0.433822D+00
   0   328    0.861272D-50    0.101320D-49    0.148863D-46    0.433822D+00
   0   329    0.398927D-50    0.468424D-50    0.675798D-47    0.433822D+00
   0   330    0.182391D-50    0.215760D-50    0.345198D-47    0.433822D+00
   0   331    0.839155D-51    0.986005D-51    0.155245D-47    0.433822D+00
   0   332    0.386071D-51    0.450454D-51    0.853826D-48    0.433822D+00
   0   333    0.177366D-51    0.208943D-51    0.395989D-48    0.433822D+00
   0   334    0.815113D-52    0.965357D-52    0.151162D-48    0.433822D+00
   0   335    0.373028D-52    0.444493D-52    0.809940D-49    0.433822D+00
   0   336    0.172483D-52    0.205047D-52    0.307434D-49    0.433822D+00
   0   337    0.788593D-53    0.939931D-53    0.133840D-49    0.433822D+00
   0   338    0.363940D-53    0.432272D-53    0.610099D-50    0.433822D+00
   0   339    0.166179D-53    0.197655D-53    0.396198D-50    0.433822D+00
   0   340    0.778355D-54    0.911101D-54    0.158297D-50    0.433822D+00
   0   341    0.356771D-54    0.419327D-54    0.660992D-51    0.433822D+00
   0   342    0.163797D-54    0.194867D-54    0.298500D-51    0.433822D+00
   0   343    0.754592D-55    0.897049D-55    0.174250D-51    0.433822D+00
   0   344    0.351160D-55    0.412614D-55    0.495122D-52    0.433822D+00
   0   345    0.160887D-55    0.191265D-55    0.327381D-52    0.433822D+00
   0   346    0.740428D-56    0.876172D-56    0.173485D-52    0.433822D+00
   0   347    0.340952D-56    0.404986D-56    0.709199D-53    0.433822D+00
   0   348    0.157362D-56    0.186196D-56    0.352696D-53    0.433822D+00
   0   349    0.722965D-57    0.853520D-57    0.119001D-53    0.433822D+00
   0   350    0.336198D-57    0.395756D-57    0.469840D-54    0.433822D+00
   0   351    0.154575D-57    0.182742D-57    0.292367D-54    0.433822D+00
   0   352    0.711638D-58    0.837823D-58    0.161083D-54    0.433822D+00
   0   353    0.323214D-58    0.385715D-58    0.637821D-55    0.433822D+00
   0   354    0.150055D-58    0.178260D-58    0.315611D-55    0.433822D+00
   0   355    0.687479D-59    0.810298D-59    0.115204D-55    0.433822D+00
   0   356    0.313958D-59    0.373285D-59    0.665303D-56    0.433822D+00
   0   357    0.146648D-59    0.172955D-59    0.320036D-56    0.433822D+00
   0   358    0.678264D-60    0.797458D-60    0.997014D-57    0.433822D+00
   0   359    0.311991D-60    0.367626D-60    0.633879D-57    0.433822D+00
   0   360    0.142874D-60    0.168228D-60    0.250396D-57    0.433822D+00
   0   361    0.659117D-61    0.777460D-61    0.120802D-57    0.433822D+00
   0   362    0.302655D-61    0.357689D-61    0.697566D-58    0.433822D+00
   0   363    0.139265D-61    0.165560D-61    0.258170D-58    0.433822D+00
   0   364    0.641675D-62    0.759947D-62    0.122629D-58    0.433822D+00
   0   365    0.297033D-62    0.350180D-62    0.506282D-59    0.433822D+00
   0   366    0.137082D-62    0.161956D-62    0.259584D-59    0.433822D+00
   0   367    0.632586D-63    0.746837D-63    0.135943D-59    0.433822D+00
   0   368    0.289465D-63    0.343261D-63    0.591720D-60    0.433822D+00
   0   369    0.132087D-63    0.157082D-63    0.212974D-60    0.433822D+00
   0   370    0.612062D-64    0.726070D-64    0.107542D-60    0.433822D+00
   0   371    0.284826D-64    0.334270D-64    0.511424D-61    0.433822D+00
   0   372    0.131342D-64    0.153301D-64    0.229095D-61    0.433822D+00
   0   373    0.597221D-65    0.709935D-65    0.117457D-61    0.433822D+00
   0   374    0.271810D-65    0.324181D-65    0.627370D-62    0.433822D+00
   0   375    0.126067D-65    0.148938D-65    0.216611D-62    0.433822D+00
   0   376    0.579008D-66    0.685051D-66    0.122629D-62    0.433822D+00
   0   377    0.267387D-66    0.316564D-66    0.492852D-63    0.433822D+00
   0   378    0.123849D-66    0.146053D-66    0.265834D-63    0.433822D+00
   0   379    0.561836D-67    0.668976D-67    0.135778D-63    0.433822D+00
   0   380    0.261174D-67    0.308348D-67    0.395948D-64    0.433822D+00
   0   381    0.120708D-67    0.143037D-67    0.207536D-64    0.433822D+00
   0   382    0.557129D-68    0.661350D-68    0.935367D-65    0.433822D+00
   0   383    0.255966D-68    0.302876D-68    0.571544D-65    0.433822D+00
   0   384    0.117670D-68    0.139741D-68    0.205205D-65    0.433822D+00
   0   385    0.538684D-69    0.638421D-69    0.899403D-66    0.433822D+00
   0   386    0.249937D-69    0.294424D-69    0.393900D-66    0.433822D+00
   0   387    0.115001D-69    0.134483D-69    0.188129D-66    0.433822D+00
   0   388    0.526711D-70    0.619272D-70    0.104736D-66    0.433822D+00
   0   389    0.238656D-70    0.282726D-70    0.494199D-67    0.433822D+00
   0   390    0.110274D-70    0.129669D-70    0.226358D-67    0.433822D+00
   0   391    0.509306D-71    0.594761D-71    0.110329D-67    0.433822D+00
   0   392    0.231492D-71    0.273568D-71    0.547773D-68    0.433822D+00
   0   393    0.105381D-71    0.125289D-71    0.192211D-68    0.433822D+00
   0   394    0.487894D-72    0.574283D-72    0.908776D-69    0.433822D+00
   0   395    0.221879D-72    0.263732D-72    0.445801D-69    0.433822D+00
   0   396    0.101991D-72    0.120731D-72    0.154238D-69    0.433822D+00
   0   397    0.466359D-73    0.552288D-73    0.763710D-70    0.433822D+00