variables =  "IG"  "JG"  "PHI"  "Temp."  "Latent_heat"  "mm"
ZONE  I=  401  J=  101
   0     0    0.100000D+01    0.474413D+00    0.000000D+00    0.398066D+00
   0     1    0.100000D+01    0.474413D+00    0.000000D+00    0.398066D+00
   0     2    0.100000D+01    0.476472D+00    0.000000D+00    0.397744D+00
   0     3    0.100000D+01    0.480556D+00    0.000000D+00    0.397095D+00
   0     4    0.100000D+01    0.486600D+00    0.000000D+00    0.396114D+00
   0     5    0.100000D+01    0.494507D+00    0.000000D+00    0.394788D+00
   0     6    0.100000D+01    0.504153D+00    0.000000D+00    0.393102D+00
   0     7    0.100000D+01    0.515389D+00    0.000000D+00    0.391039D+00
   0     8    0.100000D+01    0.528045D+00    0.000000D+00    0.388575D+00
   0     9    0.100000D+01    0.541933D+00    0.000000D+00    0.385685D+00
   0    10    0.100000D+01    0.556853D+00    0.000000D+00    0.382338D+00
   0    11    0.100000D+01    0.572600D+00    0.000000D+00    0.378502D+00
   0    12    0.100000D+01    0.588964D+00    0.000000D+00    0.374140D+00
   0    13    0.100000D+01    0.605736D+00    0.000000D+00    0.369215D+00
   0    14    0.100000D+01    0.622715D+00    0.000000D+00    0.363688D+00
   0    15    0.100000D+01    0.639708D+00    0.000000D+00    0.357522D+00
   0    16    0.100000D+01    0.656537D+00    0.000000D+00    0.350681D+00
   0    17    0.100000D+01    0.673039D+00    0.000000D+00    0.343137D+00
   0    18    0.100000D+01    0.689069D+00    0.000000D+00    0.334874D+00
   0    19    0.100000D+01    0.704502D+00    0.000000D+00    0.325886D+00
   0    20    0.100000D+01    0.719233D+00    0.000000D+00    0.316189D+00
   0    21    0.100000D+01    0.733179D+00    0.000000D+00    0.305824D+00
   0    22    0.100000D+01    0.746275D+00    0.000000D+00    0.294855D+00
   0    23    0.100000D+01    0.758479D+00    0.000000D+00    0.283382D+00
   0    24    0.100000D+01    0.769765D+00    0.000000D+00    0.271529D+00
   0    25    0.100000D+01    0.780125D+00    0.000000D+00    0.259449D+00
   0    26    0.100000D+01    0.789567D+00    0.000000D+00    0.247316D+00
   0    27    0.100000D+01    0.798110D+00    0.000000D+00    0.235310D+00
   0    28    0.100000D+01    0.805787D+00    0.000000D+00    0.223613D+00
   0    29    0.100000D+01    0.812636D+00    0.000000D+00    0.212391D+00
   0    30    0.100000D+01    0.818707D+00    0.000000D+00    0.201790D+00
   0    31    0.100000D+01    0.824052D+00    0.000000D+00    0.191923D+00
   0    32    0.100000D+01    0.828725D+00    0.000000D+00    0.182869D+00
   0    33    0.100000D+01    0.832785D+00    0.000000D+00    0.174673D+00
   0    34    0.100000D+01    0.836289D+00    0.000000D+00    0.167349D+00
   0    35    0.100000D+01    0.839293D+00    0.000000D+00    0.160881D+00
   0    36    0.100000D+01    0.841853D+00    0.000000D+00    0.155232D+00
   0    37    0.100000D+01    0.844021D+00    0.000000D+00    0.150352D+00
   0    38    0.100000D+01    0.845844D+00    0.000000D+00    0.146176D+00
   0    39    0.100000D+01    0.847369D+00    0.000000D+00    0.142635D+00
   0    40    0.100000D+01    0.848636D+00    0.000000D+00    0.139659D+00
   0    41    0.100000D+01    0.849682D+00    0.000000D+00    0.137178D+00
   0    42    0.100000D+01    0.850541D+00    0.000000D+00    0.135126D+00
   0    43    0.100000D+01    0.851242D+00    0.000000D+00    0.133441D+00
   0    44    0.100000D+01    0.851811D+00    0.000000D+00    0.132067D+00
   0    45    0.100000D+01    0.852270D+00    0.000000D+00    0.130954D+00
   0    46    0.100000D+01    0.852638D+00    0.000000D+00    0.130058D+00
   0    47    0.100000D+01    0.852932D+00    0.000000D+00    0.129342D+00
   0    48    0.100000D+01    0.853165D+00    0.000000D+00    0.128772D+00
   0    49    0.100000D+01    0.853349D+00    0.000000D+00    0.128321D+00
   0    50    0.100000D+01    0.853494D+00    0.000000D+00    0.127966D+00
   0    51    0.100000D+01    0.853608D+00    0.000000D+00    0.127687D+00
   0    52    0.100000D+01    0.853696D+00    0.000000D+00    0.127470D+00
   0    53    0.100000D+01    0.853765D+00    0.000000D+00    0.127301D+00
   0    54    0.100000D+01    0.853819D+00    0.000000D+00    0.127170D+00
   0    55    0.100000D+01    0.853860D+00    0.000000D+00    0.127068D+00
   0    56    0.100000D+01    0.853892D+00    0.000000D+00    0.126990D+00
   0    57    0.100000D+01    0.853917D+00    0.000000D+00    0.126929D+00
   0    58    0.100000D+01    0.853936D+00    0.000000D+00    0.126881D+00
   0    59    0.100000D+01    0.853951D+00    0.000000D+00    0.126845D+00
   0    60    0.100000D+01    0.853962D+00    0.000000D+00    0.126816D+00
   0    61    0.100000D+01    0.853971D+00    0.000000D+00    0.126794D+00
   0    62    0.100000D+01    0.853979D+00    0.000000D+00    0.126776D+00
   0    63    0.100000D+01    0.853984D+00    0.000000D+00    0.126762D+00
   0    64    0.100000D+01    0.853989D+00    0.000000D+00    0.126751D+00
   0    65    0.100000D+01    0.853993D+00    0.000000D+00    0.126742D+00
   0    66    0.100000D+01    0.853996D+00    0.000000D+00    0.126734D+00
   0    67    0.100000D+01    0.853998D+00    0.000000D+00    0.126728D+00
   0    68    0.100000D+01    0.854000D+00    0.000000D+00    0.126723D+00
   0    69    0.100000D+01    0.854002D+00    0.000000D+00    0.126718D+00
   0    70    0.100000D+01    0.854004D+00    0.000000D+00    0.126714D+00
   0    71    0.100000D+01    0.854005D+00    0.000000D+00    0.126711D+00
   0    72    0.100000D+01    0.854007D+00    0.000000D+00    0.126707D+00
   0    73    0.100000D+01    0.854008D+00    0.000000D+00    0.126704D+00
   0    74    0.100000D+01    0.854009D+00    0.000000D+00    0.126702D+00
   0    75    0.100000D+01    0.854010D+00    0.000000D+00    0.126700D+00
   0    76    0.100000D+01    0.854011D+00    0.000000D+00    0.126698D+00
   0    77    0.100000D+01    0.854011D+00    0.000000D+00    0.126696D+00
   0    78    0.100000D+01    0.854012D+00    0.000000D+00    0.126694D+00
   0    79    0.100000D+01    0.854012D+00    0.000000D+00    0.126693D+00
   0    80    0.100000D+01    0.854013D+00    0.000000D+00    0.126692D+00
   0    81    0.100000D+01    0.854013D+00    0.000000D+00    0.126691D+00
   0    82    0.100000D+01    0.854013D+00    0.000000D+00    0.126690D+00
   0    83    0.100000D+01    0.854014D+00    0.000000D+00    0.126690D+00
   0    84    0.100000D+01    0.854014D+00    0.000000D+00    0.126689D+00
   0    85    0.100000D+01    0.854014D+00    0.000000D+00    0.126689D+00
   0    86    0.100000D+01    0.854014D+00    0.000000D+00    0.126688D+00
   0    87    0.100000D+01    0.854015D+00    0.000000D+00    0.126687D+00
   0    88    0.100000D+01    0.854016D+00    0.000000D+00    0.126685D+00
   0    89    0.100000D+01    0.854016D+00    0.000000D+00    0.126683D+00
   0    90    0.100000D+01    0.854017D+00    0.000000D+00    0.126681D+00
   0    91    0.100000D+01    0.854018D+00    0.000000D+00    0.126678D+00
   0    92    0.100000D+01    0.854020D+00    0.000000D+00    0.126674D+00
   0    93    0.100000D+01    0.854022D+00    0.000000D+00    0.126670D+00
   0    94    0.100000D+01    0.854024D+00    0.000000D+00    0.126665D+00
   0    95    0.100000D+01    0.854026D+00    0.000000D+00    0.126660D+00
   0    96    0.100000D+01    0.854028D+00    0.000000D+00    0.126654D+00
   0    97    0.100000D+01    0.854031D+00    0.000000D+00    0.126647D+00
   0    98    0.100000D+01    0.854034D+00    0.000000D+00    0.126640D+00
   0    99    0.100000D+01    0.854037D+00    0.000000D+00    0.126633D+00
   0   100    0.100000D+01    0.854040D+00    0.000000D+00    0.126626D+00
   0   101    0.100000D+01    0.854043D+00    0.000000D+00    0.126619D+00
   0   102    0.100000D+01    0.854045D+00    0.000000D+00    0.126612D+00
   0   103    0.100000D+01    0.854048D+00    0.000000D+00    0.126605D+00
   0   104    0.100000D+01    0.854050D+00    0.000000D+00    0.126599D+00
   0   105    0.100000D+01    0.854052D+00    0.000000D+00    0.126594D+00
   0   106    0.100000D+01    0.854054D+00    0.000000D+00    0.126590D+00
   0   107    0.100000D+01    0.854055D+00    0.000000D+00    0.126587D+00
   0   108    0.100000D+01    0.854056D+00    0.000000D+00    0.126585D+00
   0   109    0.100000D+01    0.854057D+00    0.000000D+00    0.126584D+00
   0   110    0.100000D+01    0.854057D+00    0.000000D+00    0.126583D+00
   0   111    0.100000D+01    0.854057D+00    0.000000D+00    0.126584D+00
   0   112    0.100000D+01    0.854056D+00    0.000000D+00    0.126585D+00
   0   113    0.100000D+01    0.854056D+00    0.000000D+00    0.126586D+00
   0   114    0.100000D+01    0.854055D+00    0.000000D+00    0.126588D+00
   0   115    0.100000D+01    0.854054D+00    0.000000D+00    0.126590D+00
   0   116    0.100000D+01    0.854054D+00    0.000000D+00    0.126591D+00
   0   117    0.100000D+01    0.854053D+00    0.000000D+00    0.126592D+00
   0   118    0.100000D+01    0.854053D+00    0.000000D+00    0.126592D+00
   0   119    0.100000D+01    0.854054D+00    0.000000D+00    0.126591D+00
   0   120    0.100000D+01    0.854054D+00    0.000000D+00    0.126590D+00
   0   121    0.100000D+01    0.854055D+00    0.000000D+00    0.126587D+00
   0   122    0.100000D+01    0.854056D+00    0.000000D+00    0.126584D+00
   0   123    0.100000D+01    0.854058D+00    0.000000D+00    0.126581D+00
   0   124    0.100000D+01    0.854059D+00    0.000000D+00    0.126577D+00
   0   125    0.100000D+01    0.854061D+00    0.000000D+00    0.126574D+00
   0   126    0.100000D+01    0.854062D+00    0.000000D+00    0.126571D+00
   0   127    0.100000D+01    0.854063D+00    0.000000D+00    0.126568D+00
   0   128    0.100000D+01    0.854064D+00    0.000000D+00    0.126567D+00
   0   129    0.100000D+01    0.854064D+00    0.000000D+00    0.126566D+00
   0   130    0.100000D+01    0.854063D+00    0.000000D+00    0.126567D+00
   0   131    0.100000D+01    0.854062D+00    0.000000D+00    0.126570D+00
   0   132    0.100000D+01    0.854061D+00    0.000000D+00    0.126573D+00
   0   133    0.100000D+01    0.854059D+00    0.000000D+00    0.126578D+00
   0   134    0.100000D+01    0.854057D+00    0.000000D+00    0.126583D+00
   0   135    0.100000D+01    0.854055D+00    0.000000D+00    0.126588D+00
   0   136    0.100000D+01    0.854053D+00    0.000000D+00    0.126593D+00
   0   137    0.100000D+01    0.854051D+00    0.000000D+00    0.126598D+00
   0   138    0.100000D+01    0.854050D+00    0.000000D+00    0.126601D+00
   0   139    0.100000D+01    0.854049D+00    0.000000D+00    0.126604D+00
   0   140    0.100000D+01    0.854049D+00    0.000000D+00    0.126604D+00
   0   141    0.100000D+01    0.854049D+00    0.000000D+00    0.126602D+00
   0   142    0.100000D+01    0.854051D+00    0.000000D+00    0.126599D+00
   0   143    0.100000D+01    0.854053D+00    0.000000D+00    0.126594D+00
   0   144    0.100000D+01    0.854056D+00    0.000000D+00    0.126587D+00
   0   145    0.100000D+01    0.854059D+00    0.000000D+00    0.126578D+00
   0   146    0.100000D+01    0.854063D+00    0.000000D+00    0.126568D+00
   0   147    0.100000D+01    0.854067D+00    0.000000D+00    0.126558D+00
   0   148    0.100000D+01    0.854071D+00    0.000000D+00    0.126548D+00
   0   149    0.100000D+01    0.854075D+00    0.000000D+00    0.126538D+00
   0   150    0.100000D+01    0.854079D+00    0.000000D+00    0.126530D+00
   0   151    0.100000D+01    0.854082D+00    0.000000D+00    0.126522D+00
   0   152    0.100000D+01    0.854084D+00    0.000000D+00    0.126517D+00
   0   153    0.100000D+01    0.854085D+00    0.000000D+00    0.126514D+00
   0   154    0.100000D+01    0.854086D+00    0.000000D+00    0.126513D+00
   0   155    0.100000D+01    0.854085D+00    0.000000D+00    0.126514D+00
   0   156    0.100000D+01    0.854084D+00    0.000000D+00    0.126517D+00
   0   157    0.100000D+01    0.854082D+00    0.000000D+00    0.126523D+00
   0   158    0.100000D+01    0.854079D+00    0.000000D+00    0.126530D+00
   0   159    0.100000D+01    0.854075D+00    0.000000D+00    0.126538D+00
   0   160    0.100000D+01    0.854072D+00    0.000000D+00    0.126546D+00
   0   161    0.100000D+01    0.854068D+00    0.000000D+00    0.126555D+00
   0   162    0.100000D+01    0.854065D+00    0.000000D+00    0.126563D+00
   0   163    0.100000D+01    0.854062D+00    0.000000D+00    0.126570D+00
   0   164    0.100000D+01    0.854060D+00    0.000000D+00    0.126576D+00
   0   165    0.100000D+01    0.854058D+00    0.000000D+00    0.126580D+00
   0   166    0.100000D+01    0.854058D+00    0.000000D+00    0.126581D+00
   0   167    0.100000D+01    0.854058D+00    0.000000D+00    0.126581D+00
   0   168    0.100000D+01    0.854059D+00    0.000000D+00    0.126578D+00
   0   169    0.100000D+01    0.854061D+00    0.000000D+00    0.126573D+00
   0   170    0.100000D+01    0.854063D+00    0.000000D+00    0.126567D+00
   0   171    0.100000D+01    0.854066D+00    0.000000D+00    0.126560D+00
   0   172    0.100000D+01    0.854069D+00    0.000000D+00    0.126553D+00
   0   173    0.100000D+01    0.854072D+00    0.000000D+00    0.126546D+00
   0   174    0.100000D+01    0.854075D+00    0.000000D+00    0.126539D+00
   0   175    0.100000D+01    0.854077D+00    0.000000D+00    0.126534D+00
   0   176    0.100000D+01    0.854078D+00    0.000000D+00    0.126530D+00
   0   177    0.100000D+01    0.854079D+00    0.000000D+00    0.126528D+00
   0   178    0.100000D+01    0.854080D+00    0.000000D+00    0.126527D+00
   0   179    0.100000D+01    0.854080D+00    0.000000D+00    0.126528D+00
   0   180    0.100000D+01    0.854079D+00    0.000000D+00    0.126528D+00
   0   181    0.100000D+01    0.854079D+00    0.000000D+00    0.126530D+00
   0   182    0.100000D+01    0.854078D+00    0.000000D+00    0.126530D+00
   0   183    0.100000D+01    0.854078D+00    0.000000D+00    0.126530D+00
   0   184    0.100000D+01    0.854079D+00    0.000000D+00    0.126529D+00
   0   185    0.100000D+01    0.854080D+00    0.000000D+00    0.126527D+00
   0   186    0.100000D+01    0.854082D+00    0.000000D+00    0.126522D+00
   0   187    0.100000D+01    0.854085D+00    0.948280D-11    0.126515D+00
   0   188    0.100000D+01    0.854088D+00    0.189656D-10    0.126506D+00
   0   189    0.100000D+01    0.854093D+00    0.284484D-10    0.126494D+00
   0   190    0.100000D+01    0.854098D+00    0.568968D-10    0.126481D+00
   0   191    0.100000D+01    0.854104D+00    0.123276D-09    0.126467D+00
   0   192    0.100000D+01    0.854109D+00    0.218104D-09    0.126456D+00
   0   193    0.100000D+01    0.854112D+00    0.455174D-09    0.126448D+00
   0   194    0.100000D+01    0.854113D+00    0.682762D-09    0.126446D+00
   0   195    0.100000D+01    0.854110D+00    0.134656D-08    0.126453D+00
   0   196    0.100000D+01    0.854103D+00    0.373622D-08    0.126469D+00
   0   197    0.100000D+01    0.854093D+00    0.419140D-08    0.126494D+00
   0   198    0.100000D+01    0.854080D+00    0.113604D-07    0.126526D+00
   0   199    0.100000D+01    0.854067D+00    0.198854D-07    0.126559D+00
   0   200    0.100000D+01    0.854054D+00    0.280122D-07    0.126590D+00
   0   201    0.100000D+01    0.854045D+00    0.648718D-07    0.126612D+00
   0   202    0.100000D+01    0.854041D+00    0.105316D-06    0.126623D+00
   0   203    0.100000D+01    0.854043D+00    0.239213D-06    0.126619D+00
   0   204    0.100000D+01    0.854050D+00    0.542435D-06    0.126601D+00
   0   205    0.100000D+01    0.854062D+00    0.140310D-05    0.126571D+00
   0   206    0.100000D+01    0.854077D+00    0.190418D-05    0.126533D+00
   0   207    0.100000D+01    0.854094D+00    0.539017D-05    0.126491D+00
   0   208    0.100000D+01    0.854111D+00    0.755629D-05    0.126451D+00
   0   209    0.100000D+01    0.854126D+00    0.179938D-04    0.126414D+00
   0   210    0.100000D+01    0.854138D+00    0.311321D-04    0.126383D+00
   0   211    0.100000D+01    0.854148D+00    0.484885D-04    0.126358D+00
   0   212    0.100000D+01    0.854156D+00    0.825980D-04    0.126338D+00
   0   213    0.100000D+01    0.854163D+00    0.213010D-03    0.126321D+00
   0   214    0.100000D+01    0.854170D+00    0.340350D-03    0.126305D+00
   0   215    0.100000D+01    0.854175D+00    0.814150D-03    0.126292D+00
   0   216    0.999999D+00    0.854178D+00    0.114011D-02    0.126284D+00
   0   217    0.999998D+00    0.854175D+00    0.370630D-02    0.126291D+00
   0   218    0.999997D+00    0.854162D+00    0.499510D-02    0.126324D+00
   0   219    0.999993D+00    0.854133D+00    0.953571D-02    0.126395D+00
   0   220    0.999988D+00    0.854086D+00    0.152122D-01    0.126513D+00
   0   221    0.999976D+00    0.854019D+00    0.366149D-01    0.126678D+00
   0   222    0.999953D+00    0.853941D+00    0.583632D-01    0.126871D+00
   0   223    0.999910D+00    0.853868D+00    0.157399D+00    0.127055D+00
   0   224    0.999826D+00    0.853814D+00    0.265330D+00    0.127189D+00
   0   225    0.999665D+00    0.853776D+00    0.502051D+00    0.127286D+00
   0   226    0.999353D+00    0.853706D+00    0.917407D+00    0.127467D+00
   0   227    0.998760D+00    0.853474D+00    0.145860D+01    0.128050D+00
   0   228    0.997604D+00    0.852799D+00    0.417821D+01    0.129722D+00
   0   229    0.995392D+00    0.851272D+00    0.652741D+01    0.133563D+00
   0   230    0.991187D+00    0.848239D+00    0.142019D+02    0.140878D+00
   0   231    0.983125D+00    0.842452D+00    0.248216D+02    0.154383D+00
   0   232    0.967590D+00    0.831732D+00    0.543593D+02    0.177791D+00
   0   233    0.938166D+00    0.810973D+00    0.682360D+02    0.216157D+00
   0   234    0.881373D+00    0.771627D+00    0.204417D+03    0.271243D+00
   0   235    0.778775D+00    0.699100D+00    0.373843D+03    0.330532D+00
   0   236    0.616155D+00    0.576409D+00    0.467642D+03    0.378400D+00
   0   237    0.416679D+00    0.414438D+00    0.528936D+03    0.406953D+00
   0   238    0.242253D+00    0.254472D+00    0.348794D+03    0.421296D+00
   0   239    0.126860D+00    0.139862D+00    0.243730D+03    0.427963D+00
   0   240    0.623673D-01    0.706129D-01    0.104997D+03    0.431106D+00
   0   241    0.294531D-01    0.340411D-01    0.567310D+02    0.432566D+00
   0   242    0.138283D-01    0.160793D-01    0.266506D+02    0.433239D+00
   0   243    0.641852D-02    0.748451D-02    0.138544D+02    0.433555D+00
   0   244    0.292807D-02    0.346918D-02    0.524867D+01    0.433699D+00
   0   245    0.135380D-02    0.159448D-02    0.242292D+01    0.433766D+00
   0   246    0.618173D-03    0.729642D-03    0.116761D+01    0.433796D+00
   0   247    0.286513D-03    0.333819D-03    0.500703D+00    0.433810D+00
   0   248    0.130398D-03    0.154118D-03    0.252285D+00    0.433817D+00
   0   249    0.601395D-04    0.713639D-04    0.104843D+00    0.433820D+00
   0   250    0.277496D-04    0.328149D-04    0.640261D-01    0.433821D+00
   0   251    0.128586D-04    0.150169D-04    0.248670D-01    0.433822D+00
   0   252    0.582027D-05    0.687398D-05    0.964598D-02    0.433822D+00
   0   253    0.268758D-05    0.319623D-05    0.423887D-02    0.433822D+00
   0   254    0.124229D-05    0.146771D-05    0.183834D-02    0.433822D+00
   0   255    0.571188D-06    0.677631D-06    0.105472D-02    0.433822D+00
   0   256    0.262665D-06    0.310501D-06    0.504263D-03    0.433822D+00
   0   257    0.121182D-06    0.143800D-06    0.226307D-03    0.433822D+00
   0   258    0.556226D-07    0.659292D-07    0.106577D-03    0.433822D+00
   0   259    0.254084D-07    0.303814D-07    0.625558D-04    0.433822D+00
   0   260    0.118675D-07    0.140251D-07    0.197584D-04    0.433822D+00
   0   261    0.539600D-08    0.638232D-08    0.116644D-04    0.433822D+00
   0   262    0.246092D-08    0.293773D-08    0.548748D-05    0.433822D+00
   0   263    0.113595D-08    0.135653D-08    0.230160D-05    0.433822D+00
   0   264    0.525926D-09    0.624984D-09    0.104495D-05    0.433822D+00
   0   265    0.244299D-09    0.290246D-09    0.548386D-06    0.433822D+00
   0   266    0.112609D-09    0.134201D-09    0.204347D-06    0.433822D+00
   0   267    0.527997D-10    0.618339D-10    0.800039D-07    0.433822D+00
   0   268    0.243261D-10    0.284262D-10    0.495905D-07    0.433822D+00
   0   269    0.110115D-10    0.130512D-10    0.225304D-07    0.433822D+00
   0   270    0.510499D-11    0.603765D-11    0.100703D-07    0.433822D+00
   0   271    0.233628D-11    0.278158D-11    0.396708D-08    0.433822D+00
   0   272    0.108596D-11    0.128331D-11    0.242306D-08    0.433822D+00
   0   273    0.496622D-12    0.588795D-12    0.980396D-09    0.433822D+00
   0   274    0.227067D-12    0.269537D-12    0.538778D-09    0.433822D+00
   0   275    0.103349D-12    0.123520D-12    0.253467D-09    0.433822D+00
   0   276    0.477542D-13    0.564846D-13    0.110358D-09    0.433822D+00
   0   277    0.221648D-13    0.263660D-13    0.433250D-10    0.433822D+00
   0   278    0.102324D-13    0.121493D-13    0.182341D-10    0.433822D+00
   0   279    0.469347D-14    0.558064D-14    0.103131D-10    0.433822D+00
   0   280    0.216932D-14    0.257562D-14    0.465317D-11    0.433822D+00
   0   281    0.100686D-14    0.118960D-14    0.154762D-11    0.433822D+00
   0   282    0.464635D-15    0.548845D-15    0.840628D-12    0.433822D+00
   0   283    0.213680D-15    0.254498D-15    0.369255D-12    0.433822D+00
   0   284    0.977485D-16    0.116228D-15    0.180107D-12    0.433822D+00
   0   285    0.455895D-16    0.539267D-16    0.858644D-13    0.433822D+00
   0   286    0.208771D-16    0.249873D-16    0.467091D-13    0.433822D+00
   0   287    0.967014D-17    0.114643D-16    0.158423D-13    0.433822D+00
   0   288    0.443039D-17    0.521950D-17    0.710489D-14    0.433822D+00
   0   289    0.203592D-17    0.241230D-17    0.386910D-14    0.433822D+00
   0   290    0.945723D-18    0.111515D-17    0.139487D-14    0.433822D+00
   0   291    0.431675D-18    0.512714D-18    0.844115D-15    0.433822D+00
   0   292    0.198075D-18    0.235706D-18    0.418051D-15    0.433822D+00
   0   293    0.923873D-19    0.109290D-18    0.167407D-15    0.433822D+00
   0   294    0.427639D-19    0.505957D-19    0.988643D-16    0.433822D+00
   0   295    0.197317D-19    0.233922D-19    0.450385D-16    0.433822D+00
   0   296    0.901888D-20    0.107311D-19    0.155830D-16    0.433822D+00
   0   297    0.417352D-20    0.493032D-20    0.768074D-17    0.433822D+00
   0   298    0.190700D-20    0.227206D-20    0.452017D-17    0.433822D+00
   0   299    0.882566D-21    0.104272D-20    0.158565D-17    0.433822D+00
   0   300    0.406146D-21    0.481248D-21    0.712434D-18    0.433822D+00
   0   301    0.185339D-21    0.220622D-21    0.309726D-18    0.433822D+00
   0   302    0.852585D-22    0.101110D-21    0.158703D-18    0.433822D+00
   0   303    0.390913D-22    0.464173D-22    0.778718D-19    0.433822D+00
   0   304    0.178958D-22    0.212276D-22    0.350738D-19    0.433822D+00
   0   305    0.831384D-23    0.976345D-23    0.184293D-19    0.433822D+00
   0   306    0.386931D-23    0.452591D-23    0.753654D-20    0.433822D+00
   0   307    0.177479D-23    0.208142D-23    0.407178D-20    0.433822D+00
   0   308    0.823055D-24    0.967647D-24    0.172606D-20    0.433822D+00
   0   309    0.379616D-24    0.445767D-24    0.550489D-21    0.433822D+00
   0   310    0.173516D-24    0.206364D-24    0.290506D-21    0.433822D+00
   0   311    0.799649D-25    0.953459D-25    0.160859D-21    0.433822D+00
   0   312    0.371020D-25    0.438570D-25    0.753882D-22    0.433822D+00
   0   313    0.172667D-25    0.202748D-25    0.268639D-22    0.433822D+00
   0   314    0.797367D-26    0.942507D-26    0.128838D-22    0.433822D+00
   0   315    0.365899D-26    0.432117D-26    0.624060D-23    0.433822D+00
   0   316    0.167901D-26    0.199963D-26    0.329205D-23    0.433822D+00
   0   317    0.772951D-27    0.917356D-27    0.169949D-23    0.433822D+00
   0   318    0.357471D-27    0.425621D-27    0.763437D-24    0.433822D+00
   0   319    0.165785D-27    0.196399D-27    0.346549D-24    0.433822D+00
   0   320    0.767486D-28    0.902594D-28    0.156254D-24    0.433822D+00
   0   321    0.350169D-28    0.414326D-28    0.681618D-25    0.433822D+00
   0   322    0.161506D-28    0.190264D-28    0.274859D-25    0.433822D+00
   0   323    0.745227D-29    0.875597D-29    0.153394D-25    0.433822D+00
   0   324    0.341927D-29    0.403009D-29    0.688374D-26    0.433822D+00
   0   325    0.157184D-29    0.185188D-29    0.294248D-26    0.433822D+00
   0   326    0.718362D-30    0.848756D-30    0.117310D-26    0.433822D+00
   0   327    0.329301D-30    0.390483D-30    0.582228D-27    0.433822D+00
   0   328    0.153764D-30    0.180521D-30    0.324256D-27    0.433822D+00
   0   329    0.701921D-31    0.829777D-31    0.118283D-27    0.433822D+00
   0   330    0.322860D-31    0.380851D-31    0.509186D-28    0.433822D+00
   0   331    0.149997D-31    0.176453D-31    0.309235D-28    0.433822D+00
   0   332    0.689213D-32    0.818055D-32    0.133402D-28    0.433822D+00
   0   333    0.319279D-32    0.376396D-32    0.631077D-29    0.433822D+00
   0   334    0.147679D-32    0.173163D-32    0.257864D-29    0.433822D+00
   0   335    0.676867D-33    0.793923D-33    0.121056D-29    0.433822D+00
   0   336    0.309384D-33    0.367523D-33    0.641286D-30    0.433822D+00
   0   337    0.142943D-33    0.169870D-33    0.318093D-30    0.433822D+00
   0   338    0.661529D-34    0.785497D-34    0.122917D-30    0.433822D+00
   0   339    0.303083D-34    0.360281D-34    0.532450D-31    0.433822D+00
   0   340    0.138712D-34    0.166123D-34    0.243582D-31    0.433822D+00
   0   341    0.643131D-35    0.763508D-35    0.957455D-32    0.433822D+00
   0   342    0.296618D-35    0.353822D-35    0.563804D-32    0.433822D+00
   0   343    0.136617D-35    0.162442D-35    0.256039D-32    0.433822D+00
   0   344    0.627900D-36    0.750607D-36    0.102284D-32    0.433822D+00
   0   345    0.291893D-36    0.347932D-36    0.635822D-33    0.433822D+00
   0   346    0.134513D-36    0.158779D-36    0.285182D-33    0.433822D+00
   0   347    0.620716D-37    0.733528D-37    0.130440D-33    0.433822D+00
   0   348    0.284972D-37    0.337451D-37    0.554957D-34    0.433822D+00
   0   349    0.131358D-37    0.155549D-37    0.212238D-34    0.433822D+00
   0   350    0.608728D-38    0.716686D-38    0.110437D-34    0.433822D+00
   0   351    0.277387D-38    0.330273D-38    0.536192D-35    0.433822D+00
   0   352    0.128564D-38    0.152617D-38    0.207357D-35    0.433822D+00
   0   353    0.593740D-39    0.705261D-39    0.913832D-36    0.433822D+00
   0   354    0.273278D-39    0.321435D-39    0.515050D-36    0.433822D+00
   0   355    0.125229D-39    0.147445D-39    0.236147D-36    0.433822D+00
   0   356    0.579853D-40    0.682681D-40    0.109880D-36    0.433822D+00
   0   357    0.264749D-40    0.313990D-40    0.432254D-37    0.433822D+00
   0   358    0.122057D-40    0.144047D-40    0.277058D-37    0.433822D+00
   0   359    0.555194D-41    0.662408D-41    0.131374D-37    0.433822D+00
   0   360    0.259150D-41    0.304454D-41    0.501232D-38    0.433822D+00
   0   361    0.119020D-41    0.140972D-41    0.218756D-38    0.433822D+00
   0   362    0.544615D-42    0.651832D-42    0.122767D-38    0.433822D+00
   0   363    0.254490D-42    0.300042D-42    0.463348D-39    0.433822D+00
   0   364    0.115975D-42    0.137949D-42    0.267190D-39    0.433822D+00
   0   365    0.532755D-43    0.632926D-43    0.124273D-39    0.433822D+00
   0   366    0.247005D-43    0.292765D-43    0.526915D-40    0.433822D+00
   0   367    0.112514D-43    0.132691D-43    0.209308D-40    0.433822D+00
   0   368    0.518013D-44    0.613184D-44    0.843126D-41    0.433822D+00
   0   369    0.238585D-44    0.283749D-44    0.479664D-41    0.433822D+00
   0   370    0.110438D-44    0.131254D-44    0.176782D-41    0.433822D+00
   0   371    0.507756D-45    0.606896D-45    0.975675D-42    0.433822D+00
   0   372    0.234148D-45    0.276622D-45    0.372734D-42    0.433822D+00
   0   373    0.108151D-45    0.127130D-45    0.217415D-42    0.433822D+00
   0   374    0.491287D-46    0.583447D-46    0.112661D-42    0.433822D+00
   0   375    0.225080D-46    0.269563D-46    0.455712D-43    0.433822D+00
   0   376    0.104193D-46    0.123928D-46    0.193453D-43    0.433822D+00
   0   377    0.487244D-47    0.575852D-47    0.800551D-44    0.433822D+00
   0   378    0.224015D-47    0.264977D-47    0.397074D-44    0.433822D+00
   0   379    0.104523D-47    0.123228D-47    0.193053D-44    0.433822D+00
   0   380    0.475040D-48    0.564270D-48    0.871799D-45    0.433822D+00
   0   381    0.219708D-48    0.258048D-48    0.400679D-45    0.433822D+00
   0   382    0.101228D-48    0.119323D-48    0.160963D-45    0.433822D+00
   0   383    0.464081D-49    0.551081D-49    0.947183D-46    0.433822D+00
   0   384    0.214473D-49    0.255404D-49    0.469468D-46    0.433822D+00
   0   385    0.983790D-50    0.116513D-49    0.214484D-46    0.433822D+00
   0   386    0.450227D-50    0.534586D-50    0.812880D-47    0.433822D+00
   0   387    0.207462D-50    0.245971D-50    0.336971D-47    0.433822D+00
   0   388    0.958057D-51    0.113123D-50    0.153424D-47    0.433822D+00
   0   389    0.439374D-51    0.523758D-51    0.106429D-47    0.433822D+00
   0   390    0.202346D-51    0.239260D-51    0.399871D-48    0.433822D+00
   0   391    0.928090D-52    0.109905D-51    0.213091D-48    0.433822D+00
   0   392    0.428372D-52    0.509135D-52    0.719260D-49    0.433822D+00
   0   393    0.197634D-52    0.234472D-52    0.319755D-49    0.433822D+00
   0   394    0.921037D-53    0.108626D-52    0.137128D-49    0.433822D+00
   0   395    0.425125D-53    0.499079D-53    0.767852D-50    0.433822D+00
   0   396    0.194379D-53    0.229372D-53    0.371167D-50    0.433822D+00
   0   397    0.895398D-54    0.106182D-53    0.160759D-50    0.433822D+00