variables =  "IG"  "JG"  "PHI"  "Temp."  "Latent_heat"  "mm"
ZONE  I=  401  J=  101
   0     0    0.100000D+01    0.450976D+00    0.000000D+00    0.401538D+00
   0     1    0.100000D+01    0.450976D+00    0.000000D+00    0.401538D+00
   0     2    0.100000D+01    0.453420D+00    0.000000D+00    0.401192D+00
   0     3    0.100000D+01    0.458263D+00    0.000000D+00    0.400496D+00
   0     4    0.100000D+01    0.465419D+00    0.000000D+00    0.399440D+00
   0     5    0.100000D+01    0.474761D+00    0.000000D+00    0.398012D+00
   0     6    0.100000D+01    0.486126D+00    0.000000D+00    0.396192D+00
   0     7    0.100000D+01    0.499317D+00    0.000000D+00    0.393957D+00
   0     8    0.100000D+01    0.514114D+00    0.000000D+00    0.391278D+00
   0     9    0.100000D+01    0.530276D+00    0.000000D+00    0.388124D+00
   0    10    0.100000D+01    0.547546D+00    0.000000D+00    0.384456D+00
   0    11    0.100000D+01    0.565662D+00    0.000000D+00    0.380233D+00
   0    12    0.100000D+01    0.584363D+00    0.000000D+00    0.375408D+00
   0    13    0.100000D+01    0.603391D+00    0.000000D+00    0.369934D+00
   0    14    0.100000D+01    0.622500D+00    0.000000D+00    0.363762D+00
   0    15    0.100000D+01    0.641460D+00    0.000000D+00    0.356845D+00
   0    16    0.100000D+01    0.660064D+00    0.000000D+00    0.349142D+00
   0    17    0.100000D+01    0.678125D+00    0.000000D+00    0.340622D+00
   0    18    0.100000D+01    0.695483D+00    0.000000D+00    0.331271D+00
   0    19    0.100000D+01    0.712006D+00    0.000000D+00    0.321094D+00
   0    20    0.100000D+01    0.727589D+00    0.000000D+00    0.310128D+00
   0    21    0.100000D+01    0.742155D+00    0.000000D+00    0.298445D+00
   0    22    0.100000D+01    0.755652D+00    0.000000D+00    0.286155D+00
   0    23    0.100000D+01    0.768053D+00    0.000000D+00    0.273408D+00
   0    24    0.100000D+01    0.779353D+00    0.000000D+00    0.260390D+00
   0    25    0.100000D+01    0.789567D+00    0.000000D+00    0.247314D+00
   0    26    0.100000D+01    0.798725D+00    0.000000D+00    0.234403D+00
   0    27    0.100000D+01    0.806873D+00    0.000000D+00    0.221881D+00
   0    28    0.100000D+01    0.814066D+00    0.000000D+00    0.209949D+00
   0    29    0.100000D+01    0.820368D+00    0.000000D+00    0.198776D+00
   0    30    0.100000D+01    0.825848D+00    0.000000D+00    0.188488D+00
   0    31    0.100000D+01    0.830578D+00    0.000000D+00    0.179166D+00
   0    32    0.100000D+01    0.834630D+00    0.000000D+00    0.170845D+00
   0    33    0.100000D+01    0.838076D+00    0.000000D+00    0.163521D+00
   0    34    0.100000D+01    0.840985D+00    0.000000D+00    0.157160D+00
   0    35    0.100000D+01    0.843425D+00    0.000000D+00    0.151702D+00
   0    36    0.100000D+01    0.845455D+00    0.000000D+00    0.147071D+00
   0    37    0.100000D+01    0.847134D+00    0.000000D+00    0.143183D+00
   0    38    0.100000D+01    0.848512D+00    0.000000D+00    0.139951D+00
   0    39    0.100000D+01    0.849635D+00    0.000000D+00    0.137290D+00
   0    40    0.100000D+01    0.850545D+00    0.000000D+00    0.135117D+00
   0    41    0.100000D+01    0.851276D+00    0.000000D+00    0.133358D+00
   0    42    0.100000D+01    0.851861D+00    0.000000D+00    0.131945D+00
   0    43    0.100000D+01    0.852326D+00    0.000000D+00    0.130818D+00
   0    44    0.100000D+01    0.852692D+00    0.000000D+00    0.129926D+00
   0    45    0.100000D+01    0.852980D+00    0.000000D+00    0.129224D+00
   0    46    0.100000D+01    0.853205D+00    0.000000D+00    0.128675D+00
   0    47    0.100000D+01    0.853379D+00    0.000000D+00    0.128247D+00
   0    48    0.100000D+01    0.853515D+00    0.000000D+00    0.127916D+00
   0    49    0.100000D+01    0.853619D+00    0.000000D+00    0.127661D+00
   0    50    0.100000D+01    0.853699D+00    0.000000D+00    0.127464D+00
   0    51    0.100000D+01    0.853760D+00    0.000000D+00    0.127313D+00
   0    52    0.100000D+01    0.853807D+00    0.000000D+00    0.127197D+00
   0    53    0.100000D+01    0.853844D+00    0.000000D+00    0.127108D+00
   0    54    0.100000D+01    0.853872D+00    0.000000D+00    0.127039D+00
   0    55    0.100000D+01    0.853893D+00    0.000000D+00    0.126986D+00
   0    56    0.100000D+01    0.853910D+00    0.000000D+00    0.126944D+00
   0    57    0.100000D+01    0.853924D+00    0.000000D+00    0.126911D+00
   0    58    0.100000D+01    0.853935D+00    0.000000D+00    0.126885D+00
   0    59    0.100000D+01    0.853943D+00    0.000000D+00    0.126864D+00
   0    60    0.100000D+01    0.853950D+00    0.000000D+00    0.126847D+00
   0    61    0.100000D+01    0.853956D+00    0.000000D+00    0.126832D+00
   0    62    0.100000D+01    0.853960D+00    0.000000D+00    0.126821D+00
   0    63    0.100000D+01    0.853964D+00    0.000000D+00    0.126811D+00
   0    64    0.100000D+01    0.853968D+00    0.000000D+00    0.126803D+00
   0    65    0.100000D+01    0.853971D+00    0.000000D+00    0.126796D+00
   0    66    0.100000D+01    0.853973D+00    0.000000D+00    0.126790D+00
   0    67    0.100000D+01    0.853975D+00    0.000000D+00    0.126784D+00
   0    68    0.100000D+01    0.853977D+00    0.000000D+00    0.126779D+00
   0    69    0.100000D+01    0.853979D+00    0.000000D+00    0.126775D+00
   0    70    0.100000D+01    0.853981D+00    0.000000D+00    0.126770D+00
   0    71    0.100000D+01    0.853983D+00    0.000000D+00    0.126766D+00
   0    72    0.100000D+01    0.853984D+00    0.000000D+00    0.126762D+00
   0    73    0.100000D+01    0.853986D+00    0.000000D+00    0.126758D+00
   0    74    0.100000D+01    0.853987D+00    0.000000D+00    0.126754D+00
   0    75    0.100000D+01    0.853989D+00    0.000000D+00    0.126751D+00
   0    76    0.100000D+01    0.853990D+00    0.000000D+00    0.126748D+00
   0    77    0.100000D+01    0.853991D+00    0.000000D+00    0.126745D+00
   0    78    0.100000D+01    0.853992D+00    0.000000D+00    0.126743D+00
   0    79    0.100000D+01    0.853993D+00    0.000000D+00    0.126741D+00
   0    80    0.100000D+01    0.853993D+00    0.000000D+00    0.126740D+00
   0    81    0.100000D+01    0.853994D+00    0.000000D+00    0.126739D+00
   0    82    0.100000D+01    0.853994D+00    0.000000D+00    0.126739D+00
   0    83    0.100000D+01    0.853994D+00    0.000000D+00    0.126739D+00
   0    84    0.100000D+01    0.853994D+00    0.000000D+00    0.126739D+00
   0    85    0.100000D+01    0.853994D+00    0.000000D+00    0.126739D+00
   0    86    0.100000D+01    0.853993D+00    0.000000D+00    0.126740D+00
   0    87    0.100000D+01    0.853993D+00    0.000000D+00    0.126740D+00
   0    88    0.100000D+01    0.853994D+00    0.000000D+00    0.126739D+00
   0    89    0.100000D+01    0.853994D+00    0.000000D+00    0.126739D+00
   0    90    0.100000D+01    0.853995D+00    0.000000D+00    0.126737D+00
   0    91    0.100000D+01    0.853996D+00    0.000000D+00    0.126734D+00
   0    92    0.100000D+01    0.853997D+00    0.000000D+00    0.126731D+00
   0    93    0.100000D+01    0.853999D+00    0.000000D+00    0.126726D+00
   0    94    0.100000D+01    0.854001D+00    0.000000D+00    0.126721D+00
   0    95    0.100000D+01    0.854004D+00    0.000000D+00    0.126714D+00
   0    96    0.100000D+01    0.854007D+00    0.000000D+00    0.126707D+00
   0    97    0.100000D+01    0.854010D+00    0.000000D+00    0.126698D+00
   0    98    0.100000D+01    0.854014D+00    0.000000D+00    0.126689D+00
   0    99    0.100000D+01    0.854018D+00    0.000000D+00    0.126680D+00
   0   100    0.100000D+01    0.854022D+00    0.000000D+00    0.126670D+00
   0   101    0.100000D+01    0.854026D+00    0.000000D+00    0.126660D+00
   0   102    0.100000D+01    0.854029D+00    0.000000D+00    0.126651D+00
   0   103    0.100000D+01    0.854033D+00    0.000000D+00    0.126642D+00
   0   104    0.100000D+01    0.854036D+00    0.000000D+00    0.126634D+00
   0   105    0.100000D+01    0.854039D+00    0.000000D+00    0.126627D+00
   0   106    0.100000D+01    0.854042D+00    0.000000D+00    0.126621D+00
   0   107    0.100000D+01    0.854043D+00    0.000000D+00    0.126617D+00
   0   108    0.100000D+01    0.854044D+00    0.000000D+00    0.126614D+00
   0   109    0.100000D+01    0.854045D+00    0.000000D+00    0.126613D+00
   0   110    0.100000D+01    0.854045D+00    0.000000D+00    0.126614D+00
   0   111    0.100000D+01    0.854044D+00    0.000000D+00    0.126616D+00
   0   112    0.100000D+01    0.854042D+00    0.000000D+00    0.126620D+00
   0   113    0.100000D+01    0.854040D+00    0.000000D+00    0.126624D+00
   0   114    0.100000D+01    0.854038D+00    0.000000D+00    0.126629D+00
   0   115    0.100000D+01    0.854036D+00    0.000000D+00    0.126634D+00
   0   116    0.100000D+01    0.854034D+00    0.000000D+00    0.126639D+00
   0   117    0.100000D+01    0.854033D+00    0.000000D+00    0.126642D+00
   0   118    0.100000D+01    0.854033D+00    0.000000D+00    0.126643D+00
   0   119    0.100000D+01    0.854033D+00    0.000000D+00    0.126643D+00
   0   120    0.100000D+01    0.854034D+00    0.000000D+00    0.126640D+00
   0   121    0.100000D+01    0.854036D+00    0.000000D+00    0.126635D+00
   0   122    0.100000D+01    0.854039D+00    0.000000D+00    0.126628D+00
   0   123    0.100000D+01    0.854042D+00    0.000000D+00    0.126620D+00
   0   124    0.100000D+01    0.854046D+00    0.000000D+00    0.126611D+00
   0   125    0.100000D+01    0.854050D+00    0.000000D+00    0.126601D+00
   0   126    0.100000D+01    0.854053D+00    0.000000D+00    0.126593D+00
   0   127    0.100000D+01    0.854056D+00    0.000000D+00    0.126586D+00
   0   128    0.100000D+01    0.854058D+00    0.000000D+00    0.126581D+00
   0   129    0.100000D+01    0.854058D+00    0.000000D+00    0.126580D+00
   0   130    0.100000D+01    0.854057D+00    0.000000D+00    0.126582D+00
   0   131    0.100000D+01    0.854055D+00    0.000000D+00    0.126588D+00
   0   132    0.100000D+01    0.854051D+00    0.000000D+00    0.126597D+00
   0   133    0.100000D+01    0.854047D+00    0.000000D+00    0.126608D+00
   0   134    0.100000D+01    0.854041D+00    0.000000D+00    0.126622D+00
   0   135    0.100000D+01    0.854035D+00    0.000000D+00    0.126636D+00
   0   136    0.100000D+01    0.854030D+00    0.000000D+00    0.126650D+00
   0   137    0.100000D+01    0.854024D+00    0.000000D+00    0.126664D+00
   0   138    0.100000D+01    0.854020D+00    0.000000D+00    0.126675D+00
   0   139    0.100000D+01    0.854017D+00    0.000000D+00    0.126682D+00
   0   140    0.100000D+01    0.854015D+00    0.000000D+00    0.126687D+00
   0   141    0.100000D+01    0.854015D+00    0.000000D+00    0.126687D+00
   0   142    0.100000D+01    0.854017D+00    0.000000D+00    0.126682D+00
   0   143    0.100000D+01    0.854020D+00    0.000000D+00    0.126674D+00
   0   144    0.100000D+01    0.854025D+00    0.000000D+00    0.126661D+00
   0   145    0.100000D+01    0.854032D+00    0.000000D+00    0.126646D+00
   0   146    0.100000D+01    0.854039D+00    0.000000D+00    0.126627D+00
   0   147    0.100000D+01    0.854047D+00    0.000000D+00    0.126607D+00
   0   148    0.100000D+01    0.854056D+00    0.000000D+00    0.126587D+00
   0   149    0.100000D+01    0.854064D+00    0.000000D+00    0.126567D+00
   0   150    0.100000D+01    0.854071D+00    0.000000D+00    0.126548D+00
   0   151    0.100000D+01    0.854078D+00    0.000000D+00    0.126531D+00
   0   152    0.100000D+01    0.854083D+00    0.000000D+00    0.126518D+00
   0   153    0.100000D+01    0.854087D+00    0.000000D+00    0.126508D+00
   0   154    0.100000D+01    0.854090D+00    0.000000D+00    0.126503D+00
   0   155    0.100000D+01    0.854090D+00    0.000000D+00    0.126501D+00
   0   156    0.100000D+01    0.854089D+00    0.000000D+00    0.126504D+00
   0   157    0.100000D+01    0.854087D+00    0.000000D+00    0.126510D+00
   0   158    0.100000D+01    0.854083D+00    0.948280D-11    0.126519D+00
   0   159    0.100000D+01    0.854078D+00    0.189656D-10    0.126531D+00
   0   160    0.100000D+01    0.854072D+00    0.189656D-10    0.126545D+00
   0   161    0.100000D+01    0.854066D+00    0.379312D-10    0.126560D+00
   0   162    0.100000D+01    0.854061D+00    0.948280D-10    0.126574D+00
   0   163    0.100000D+01    0.854055D+00    0.170690D-09    0.126587D+00
   0   164    0.100000D+01    0.854051D+00    0.303450D-09    0.126597D+00
   0   165    0.100000D+01    0.854049D+00    0.540520D-09    0.126603D+00
   0   166    0.100000D+01    0.854048D+00    0.115690D-08    0.126604D+00
   0   167    0.100000D+01    0.854050D+00    0.238967D-08    0.126600D+00
   0   168    0.100000D+01    0.854054D+00    0.406812D-08    0.126592D+00
   0   169    0.100000D+01    0.854059D+00    0.878107D-08    0.126579D+00
   0   170    0.100000D+01    0.854065D+00    0.127449D-07    0.126564D+00
   0   171    0.100000D+01    0.854071D+00    0.338820D-07    0.126548D+00
   0   172    0.100000D+01    0.854077D+00    0.698124D-07    0.126534D+00
   0   173    0.100000D+01    0.854081D+00    0.977392D-07    0.126524D+00
   0   174    0.100000D+01    0.854083D+00    0.271730D-06    0.126518D+00
   0   175    0.100000D+01    0.854084D+00    0.371052D-06    0.126517D+00
   0   176    0.100000D+01    0.854083D+00    0.787518D-06    0.126519D+00
   0   177    0.100000D+01    0.854081D+00    0.128148D-05    0.126523D+00
   0   178    0.100000D+01    0.854080D+00    0.361438D-05    0.126526D+00
   0   179    0.100000D+01    0.854080D+00    0.623624D-05    0.126527D+00
   0   180    0.100000D+01    0.854081D+00    0.886355D-05    0.126524D+00
   0   181    0.100000D+01    0.854085D+00    0.189713D-04    0.126514D+00
   0   182    0.100000D+01    0.854091D+00    0.461540D-04    0.126499D+00
   0   183    0.100000D+01    0.854099D+00    0.791805D-04    0.126479D+00
   0   184    0.100000D+01    0.854109D+00    0.153254D-03    0.126455D+00
   0   185    0.100000D+01    0.854118D+00    0.297585D-03    0.126432D+00
   0   186    0.100000D+01    0.854126D+00    0.805661D-03    0.126412D+00
   0   187    0.999999D+00    0.854132D+00    0.841590D-03    0.126398D+00
   0   188    0.999999D+00    0.854135D+00    0.167659D-02    0.126390D+00
   0   189    0.999997D+00    0.854138D+00    0.303586D-02    0.126383D+00
   0   190    0.999995D+00    0.854144D+00    0.868903D-02    0.126369D+00
   0   191    0.999990D+00    0.854157D+00    0.153002D-01    0.126337D+00
   0   192    0.999981D+00    0.854180D+00    0.330266D-01    0.126280D+00
   0   193    0.999964D+00    0.854212D+00    0.397610D-01    0.126202D+00
   0   194    0.999931D+00    0.854244D+00    0.101105D+00    0.126123D+00
   0   195    0.999866D+00    0.854257D+00    0.218849D+00    0.126092D+00
   0   196    0.999743D+00    0.854214D+00    0.329812D+00    0.126199D+00
   0   197    0.999506D+00    0.854054D+00    0.684286D+00    0.126606D+00
   0   198    0.999039D+00    0.853657D+00    0.140830D+01    0.127599D+00
   0   199    0.998136D+00    0.852859D+00    0.270124D+01    0.129557D+00
   0   200    0.996393D+00    0.851394D+00    0.673487D+01    0.133187D+00
   0   201    0.993138D+00    0.848923D+00    0.107440D+02    0.139199D+00
   0   202    0.986816D+00    0.844472D+00    0.260454D+02    0.149555D+00
   0   203    0.974528D+00    0.835989D+00    0.380299D+02    0.168631D+00
   0   204    0.951235D+00    0.820215D+00    0.894695D+02    0.200550D+00
   0   205    0.905688D+00    0.789000D+00    0.136928D+03    0.250016D+00
   0   206    0.823850D+00    0.731198D+00    0.202936D+03    0.309492D+00
   0   207    0.683259D+00    0.627819D+00    0.404773D+03    0.363383D+00
   0   208    0.492893D+00    0.477089D+00    0.491606D+03    0.398339D+00
   0   209    0.299308D+00    0.311992D+00    0.437106D+03    0.417043D+00
   0   210    0.161719D+00    0.176784D+00    0.280046D+03    0.426029D+00
   0   211    0.812263D-01    0.912778D-01    0.129906D+03    0.430210D+00
   0   212    0.389885D-01    0.450114D-01    0.693275D+02    0.432148D+00
   0   213    0.182612D-01    0.213291D-01    0.333888D+02    0.433045D+00
   0   214    0.849662D-02    0.100143D-01    0.165332D+02    0.433464D+00
   0   215    0.392238D-02    0.464068D-02    0.824984D+01    0.433656D+00
   0   216    0.180052D-02    0.213973D-02    0.426664D+01    0.433746D+00
   0   217    0.833071D-03    0.984022D-03    0.159789D+01    0.433787D+00
   0   218    0.384991D-03    0.457270D-03    0.576559D+00    0.433806D+00
   0   219    0.176291D-03    0.211166D-03    0.392008D+00    0.433815D+00
   0   220    0.818635D-04    0.971174D-04    0.164539D+00    0.433819D+00
   0   221    0.378902D-04    0.447419D-04    0.771259D-01    0.433820D+00
   0   222    0.175918D-04    0.207303D-04    0.368124D-01    0.433821D+00
   0   223    0.809848D-05    0.954121D-05    0.180711D-01    0.433822D+00
   0   224    0.372032D-05    0.440118D-05    0.599928D-02    0.433822D+00
   0   225    0.170803D-05    0.202934D-05    0.358944D-02    0.433822D+00
   0   226    0.796553D-06    0.936926D-06    0.130763D-02    0.433822D+00
   0   227    0.363527D-06    0.431786D-06    0.794705D-03    0.433822D+00
   0   228    0.169001D-06    0.199260D-06    0.266859D-03    0.433822D+00
   0   229    0.773351D-07    0.917859D-07    0.147861D-03    0.433822D+00
   0   230    0.353404D-07    0.419213D-07    0.830525D-04    0.433822D+00
   0   231    0.163458D-07    0.193376D-07    0.346991D-04    0.433822D+00
   0   232    0.753304D-08    0.881314D-08    0.116925D-04    0.433822D+00
   0   233    0.344183D-08    0.407103D-08    0.597878D-05    0.433822D+00
   0   234    0.159491D-08    0.188198D-08    0.265881D-05    0.433822D+00
   0   235    0.730266D-09    0.866644D-09    0.132932D-05    0.433822D+00
   0   236    0.336866D-09    0.401046D-09    0.743983D-06    0.433822D+00
   0   237    0.157132D-09    0.184973D-09    0.259222D-06    0.433822D+00
   0   238    0.722263D-10    0.849854D-10    0.136595D-06    0.433822D+00
   0   239    0.330286D-10    0.390816D-10    0.642399D-07    0.433822D+00
   0   240    0.152904D-10    0.180598D-10    0.323144D-07    0.433822D+00
   0   241    0.706059D-11    0.835339D-11    0.164052D-07    0.433822D+00
   0   242    0.326261D-11    0.381989D-11    0.545792D-08    0.433822D+00
   0   243    0.150037D-11    0.175927D-11    0.324982D-08    0.433822D+00
   0   244    0.687232D-12    0.813452D-12    0.143916D-08    0.433822D+00
   0   245    0.313533D-12    0.369997D-12    0.495345D-09    0.433822D+00
   0   246    0.144326D-12    0.170916D-12    0.245267D-09    0.433822D+00
   0   247    0.666566D-13    0.790487D-13    0.148937D-09    0.433822D+00
   0   248    0.309136D-13    0.364462D-13    0.546553D-10    0.433822D+00
   0   249    0.142867D-13    0.167563D-13    0.217979D-10    0.433822D+00
   0   250    0.655324D-14    0.770062D-14    0.103060D-10    0.433822D+00
   0   251    0.298744D-14    0.352014D-14    0.605051D-11    0.433822D+00
   0   252    0.137498D-14    0.161442D-14    0.275855D-11    0.433822D+00
   0   253    0.632188D-15    0.742633D-15    0.136541D-11    0.433822D+00
   0   254    0.289821D-15    0.343107D-15    0.601296D-12    0.433822D+00
   0   255    0.133315D-15    0.158129D-15    0.219392D-12    0.433822D+00
   0   256    0.620093D-16    0.729091D-16    0.123774D-12    0.433822D+00
   0   257    0.281769D-16    0.336698D-16    0.663223D-13    0.433822D+00
   0   258    0.131088D-16    0.154935D-16    0.289341D-13    0.433822D+00
   0   259    0.607991D-17    0.721253D-17    0.129243D-13    0.433822D+00
   0   260    0.281461D-17    0.332780D-17    0.442476D-14    0.433822D+00
   0   261    0.128491D-17    0.154013D-17    0.258913D-14    0.433822D+00
   0   262    0.593406D-18    0.708124D-18    0.124475D-14    0.433822D+00
   0   263    0.275822D-18    0.326025D-18    0.609443D-15    0.433822D+00
   0   264    0.127461D-18    0.151110D-18    0.223521D-15    0.433822D+00
   0   265    0.585545D-19    0.691587D-19    0.111409D-15    0.433822D+00
   0   266    0.267828D-19    0.315884D-19    0.456653D-16    0.433822D+00
   0   267    0.123244D-19    0.145136D-19    0.215032D-16    0.433822D+00
   0   268    0.567035D-20    0.673456D-20    0.114696D-16    0.433822D+00
   0   269    0.263536D-20    0.311013D-20    0.505750D-17    0.433822D+00
   0   270    0.121478D-20    0.143702D-20    0.219698D-17    0.433822D+00
   0   271    0.562303D-21    0.659407D-21    0.100929D-17    0.433822D+00
   0   272    0.258033D-21    0.304674D-21    0.534892D-18    0.433822D+00
   0   273    0.119663D-21    0.140620D-21    0.191479D-18    0.433822D+00
   0   274    0.549446D-22    0.649153D-22    0.119364D-18    0.433822D+00
   0   275    0.251297D-22    0.297999D-22    0.409574D-19    0.433822D+00
   0   276    0.116224D-22    0.136572D-22    0.190880D-19    0.433822D+00
   0   277    0.536394D-23    0.632339D-23    0.101086D-19    0.433822D+00
   0   278    0.246158D-23    0.293255D-23    0.562743D-20    0.433822D+00
   0   279    0.114125D-23    0.135056D-23    0.216857D-20    0.433822D+00
   0   280    0.518678D-24    0.617727D-24    0.102138D-20    0.433822D+00
   0   281    0.240208D-24    0.283854D-24    0.480459D-21    0.433822D+00
   0   282    0.110329D-24    0.131387D-24    0.263665D-21    0.433822D+00
   0   283    0.506710D-25    0.606911D-25    0.977091D-22    0.433822D+00
   0   284    0.231554D-25    0.278477D-25    0.487574D-22    0.433822D+00
   0   285    0.107188D-25    0.128537D-25    0.250867D-22    0.433822D+00
   0   286    0.499669D-26    0.591334D-26    0.800818D-23    0.433822D+00
   0   287    0.231964D-26    0.273612D-26    0.331561D-23    0.433822D+00
   0   288    0.105260D-26    0.124791D-26    0.173770D-23    0.433822D+00
   0   289    0.486352D-27    0.577049D-27    0.104758D-23    0.433822D+00
   0   290    0.223446D-27    0.264900D-27    0.402718D-24    0.433822D+00
   0   291    0.102436D-27    0.121901D-27    0.239362D-24    0.433822D+00
   0   292    0.473042D-28    0.560124D-28    0.905435D-25    0.433822D+00
   0   293    0.218110D-28    0.257670D-28    0.411233D-25    0.433822D+00
   0   294    0.100836D-28    0.118776D-28    0.196397D-25    0.433822D+00
   0   295    0.458938D-29    0.548796D-29    0.788817D-26    0.433822D+00
   0   296    0.214713D-29    0.251558D-29    0.327727D-26    0.433822D+00
   0   297    0.976142D-30    0.116170D-29    0.201964D-26    0.433822D+00
   0   298    0.454014D-30    0.535021D-30    0.803340D-27    0.433822D+00
   0   299    0.207225D-30    0.245068D-30    0.374537D-27    0.433822D+00
   0   300    0.949240D-31    0.112583D-30    0.154496D-27    0.433822D+00
   0   301    0.438984D-31    0.517690D-31    0.798699D-28    0.433822D+00
   0   302    0.200564D-31    0.240250D-31    0.420841D-28    0.433822D+00
   0   303    0.943157D-32    0.110605D-31    0.149427D-28    0.433822D+00
   0   304    0.434994D-32    0.511817D-32    0.643790D-29    0.433822D+00
   0   305    0.200891D-32    0.237251D-32    0.454534D-29    0.433822D+00
   0   306    0.916459D-33    0.109165D-32    0.177225D-29    0.433822D+00
   0   307    0.425468D-33    0.505694D-33    0.756281D-30    0.433822D+00
   0   308    0.197396D-33    0.234163D-33    0.345455D-30    0.433822D+00
   0   309    0.901216D-34    0.107362D-33    0.156229D-30    0.433822D+00
   0   310    0.414733D-34    0.492454D-34    0.714349D-31    0.433822D+00
   0   311    0.192073D-34    0.227969D-34    0.312348D-31    0.433822D+00
   0   312    0.895804D-35    0.105310D-34    0.174670D-31    0.433822D+00
   0   313    0.408177D-35    0.484350D-35    0.764491D-32    0.433822D+00
   0   314    0.187757D-35    0.222003D-35    0.397294D-32    0.433822D+00
   0   315    0.872650D-36    0.102085D-35    0.124647D-32    0.433822D+00
   0   316    0.401253D-36    0.475914D-36    0.703514D-33    0.433822D+00
   0   317    0.184867D-36    0.220091D-36    0.367111D-33    0.433822D+00
   0   318    0.857921D-37    0.101556D-36    0.150713D-33    0.433822D+00
   0   319    0.391715D-37    0.459575D-37    0.816004D-34    0.433822D+00
   0   320    0.179620D-37    0.210250D-37    0.342949D-34    0.433822D+00
   0   321    0.818201D-38    0.970306D-38    0.194079D-34    0.433822D+00
   0   322    0.375848D-38    0.445859D-38    0.793145D-35    0.433822D+00
   0   323    0.173223D-38    0.206782D-38    0.408663D-35    0.433822D+00
   0   324    0.806390D-39    0.952860D-39    0.115099D-35    0.433822D+00
   0   325    0.370196D-39    0.437267D-39    0.826617D-36    0.433822D+00
   0   326    0.171448D-39    0.201700D-39    0.259718D-36    0.433822D+00
   0   327    0.781848D-40    0.934630D-40    0.161125D-36    0.433822D+00
   0   328    0.359073D-40    0.427512D-40    0.846298D-37    0.433822D+00
   0   329    0.164422D-40    0.196162D-40    0.330965D-37    0.433822D+00
   0   330    0.765152D-41    0.904285D-41    0.108570D-37    0.433822D+00
   0   331    0.354056D-41    0.417232D-41    0.507928D-38    0.433822D+00
   0   332    0.163014D-41    0.192638D-41    0.252344D-38    0.433822D+00
   0   333    0.755197D-42    0.890259D-42    0.169206D-38    0.433822D+00
   0   334    0.342678D-42    0.407306D-42    0.689339D-39    0.433822D+00
   0   335    0.159075D-42    0.186460D-42    0.339436D-39    0.433822D+00
   0   336    0.726061D-43    0.860248D-43    0.122740D-39    0.433822D+00
   0   337    0.331279D-43    0.394893D-43    0.530978D-40    0.433822D+00
   0   338    0.153119D-43    0.181657D-43    0.290316D-40    0.433822D+00
   0   339    0.706555D-44    0.839299D-44    0.128288D-40    0.433822D+00
   0   340    0.327432D-44    0.384257D-44    0.653027D-41    0.433822D+00
   0   341    0.151310D-44    0.177495D-44    0.328141D-41    0.433822D+00
   0   342    0.699128D-45    0.825804D-45    0.161109D-41    0.433822D+00
   0   343    0.322027D-45    0.381592D-45    0.536447D-42    0.433822D+00
   0   344    0.148055D-45    0.175489D-45    0.246751D-42    0.433822D+00
   0   345    0.682924D-46    0.812251D-46    0.111504D-42    0.433822D+00
   0   346    0.316504D-46    0.372898D-46    0.608597D-43    0.433822D+00
   0   347    0.145078D-46    0.172198D-46    0.342477D-43    0.433822D+00
   0   348    0.670446D-47    0.792569D-47    0.112047D-43    0.433822D+00
   0   349    0.311837D-47    0.364846D-47    0.667815D-44    0.433822D+00
   0   350    0.141995D-47    0.167118D-47    0.328620D-44    0.433822D+00
   0   351    0.650776D-48    0.776485D-48    0.106048D-44    0.433822D+00
   0   352    0.299751D-48    0.358802D-48    0.675860D-45    0.433822D+00
   0   353    0.138379D-48    0.163585D-48    0.308893D-45    0.433822D+00
   0   354    0.636189D-49    0.756500D-49    0.114630D-45    0.433822D+00
   0   355    0.295884D-49    0.349421D-49    0.664058D-46    0.433822D+00
   0   356    0.136084D-49    0.161114D-49    0.228557D-46    0.433822D+00
   0   357    0.629737D-50    0.748640D-50    0.110226D-46    0.433822D+00
   0   358    0.291334D-50    0.345691D-50    0.615139D-47    0.433822D+00
   0   359    0.135165D-50    0.158795D-50    0.229600D-47    0.433822D+00
   0   360    0.623849D-51    0.731532D-51    0.135593D-47    0.433822D+00
   0   361    0.285768D-51    0.337591D-51    0.623218D-48    0.433822D+00
   0   362    0.132318D-51    0.154996D-51    0.274220D-48    0.433822D+00
   0   363    0.606693D-52    0.712466D-52    0.128513D-48    0.433822D+00
   0   364    0.280055D-52    0.327163D-52    0.406526D-49    0.433822D+00
   0   365    0.129191D-52    0.151766D-52    0.265243D-49    0.433822D+00
   0   366    0.590463D-53    0.699061D-53    0.130806D-49    0.433822D+00
   0   367    0.273279D-53    0.320558D-53    0.436701D-50    0.433822D+00
   0   368    0.124881D-53    0.147773D-53    0.225364D-50    0.433822D+00
   0   369    0.573438D-54    0.680555D-54    0.981640D-51    0.433822D+00
   0   370    0.264749D-54    0.313891D-54    0.421252D-51    0.433822D+00
   0   371    0.122279D-54    0.144597D-54    0.232811D-51    0.433822D+00
   0   372    0.556744D-55    0.663223D-55    0.116087D-51    0.433822D+00
   0   373    0.257530D-55    0.304633D-55    0.587107D-52    0.433822D+00
   0   374    0.118466D-55    0.140563D-55    0.192701D-52    0.433822D+00
   0   375    0.546710D-56    0.644745D-56    0.123528D-52    0.433822D+00
   0   376    0.253985D-56    0.301359D-56    0.497923D-53    0.433822D+00
   0   377    0.115788D-56    0.137605D-56    0.217322D-53    0.433822D+00
   0   378    0.534670D-57    0.632961D-57    0.832873D-54    0.433822D+00
   0   379    0.246392D-57    0.291317D-57    0.466170D-54    0.433822D+00
   0   380    0.113109D-57    0.134604D-57    0.198358D-54    0.433822D+00
   0   381    0.517145D-58    0.614720D-58    0.906268D-55    0.433822D+00
   0   382    0.242134D-58    0.285659D-58    0.453526D-55    0.433822D+00
   0   383    0.109443D-58    0.131100D-58    0.278891D-55    0.433822D+00
   0   384    0.502059D-59    0.601409D-59    0.825474D-56    0.433822D+00
   0   385    0.234723D-59    0.279498D-59    0.459669D-56    0.433822D+00
   0   386    0.109044D-59    0.128770D-59    0.216149D-56    0.433822D+00
   0   387    0.508377D-60    0.595270D-60    0.966441D-57    0.433822D+00
   0   388    0.231402D-60    0.273234D-60    0.447271D-57    0.433822D+00
   0   389    0.106641D-60    0.126459D-60    0.225979D-57    0.433822D+00
   0   390    0.488610D-61    0.579902D-61    0.913231D-58    0.433822D+00
   0   391    0.226023D-61    0.268795D-61    0.436606D-58    0.433822D+00
   0   392    0.104237D-61    0.124081D-61    0.225549D-58    0.433822D+00
   0   393    0.481668D-62    0.568496D-62    0.998525D-59    0.433822D+00
   0   394    0.222906D-62    0.262964D-62    0.330377D-59    0.433822D+00
   0   395    0.103110D-62    0.122052D-62    0.198210D-59    0.433822D+00
   0   396    0.472305D-63    0.557622D-63    0.796276D-60    0.433822D+00
   0   397    0.220876D-63    0.258981D-63    0.398130D-60    0.433822D+00