variables =  "IG"  "JG"  "PHI"  "Temp."  "Latent_heat"  "mm"
ZONE  I=  401  J=  101
   0     0    0.100000D+01    0.450669D+00    0.133836D-10    0.434688D+00
   0     1    0.100000D+01    0.450669D+00    0.401509D-10    0.434688D+00
   0     2    0.100000D+01    0.458350D+00   -0.147220D-09    0.433271D+00
   0     3    0.100000D+01    0.473457D+00    0.100377D-08    0.430329D+00
   0     4    0.100000D+01    0.495492D+00   -0.173987D-09    0.425634D+00
   0     5    0.100000D+01    0.523739D+00    0.103054D-08    0.418788D+00
   0     6    0.100000D+01    0.557304D+00    0.143874D-07    0.409155D+00
   0     7    0.100000D+01    0.595155D+00    0.143472D-07    0.395711D+00
   0     8    0.100000D+01    0.636175D+00    0.182632D-05    0.376800D+00
   0     9    0.100000D+01    0.679213D+00    0.787825D-05    0.349665D+00
   0    10    0.100000D+01    0.723136D+00   -0.815921D-05    0.309674D+00
   0    11    0.100000D+01    0.766879D+00    0.229373D-03    0.249392D+00
   0    12    0.999999D+00    0.809485D+00   -0.383223D-03    0.159766D+00
   0    13    0.999995D+00    0.850149D+00   -0.915115D-03    0.410356D-01
   0    14    0.999982D+00    0.888236D+00    0.637982D-02   -0.812660D-01
   0    15    0.999949D+00    0.923306D+00    0.115951D-01   -0.177504D+00
   0    16    0.999878D+00    0.955112D+00    0.538450D-01   -0.243159D+00
   0    17    0.999747D+00    0.983599D+00    0.112679D+00   -0.286821D+00
   0    18    0.999555D+00    0.100887D+01   -0.118682D+00   -0.316544D+00
   0    19    0.999308D+00    0.103116D+01   -0.260401D+00   -0.337519D+00
   0    20    0.999041D+00    0.105073D+01    0.731675D+00   -0.352846D+00
   0    21    0.998833D+00    0.106791D+01    0.544333D+00   -0.364377D+00
   0    22    0.998685D+00    0.108296D+01   -0.559038D+00   -0.373267D+00
   0    23    0.998566D+00    0.109606D+01    0.702956D+00   -0.380228D+00
   0    24    0.998489D+00    0.110741D+01   -0.763583D+00   -0.385748D+00
   0    25    0.998406D+00    0.111709D+01    0.853212D+00   -0.390119D+00
   0    26    0.998330D+00    0.112525D+01    0.912187D+00   -0.393591D+00
   0    27    0.998227D+00    0.113213D+01    0.117510D+01   -0.396365D+00
   0    28    0.998106D+00    0.113793D+01    0.113771D+01   -0.398614D+00
   0    29    0.997983D+00    0.114289D+01    0.102516D+01   -0.400470D+00
   0    30    0.997868D+00    0.114716D+01    0.219056D-01   -0.402024D+00
   0    31    0.997749D+00    0.115085D+01    0.929222D+00   -0.403334D+00
   0    32    0.997573D+00    0.115413D+01    0.138285D+01   -0.404466D+00
   0    33    0.997392D+00    0.115702D+01   -0.280555D+00   -0.405455D+00
   0    34    0.997065D+00    0.115960D+01   -0.733047D+00   -0.406314D+00
   0    35    0.996675D+00    0.116178D+01    0.904542D+00   -0.407033D+00
   0    36    0.996172D+00    0.116350D+01    0.131865D+01   -0.407588D+00
   0    37    0.995459D+00    0.116475D+01    0.522778D+00   -0.407990D+00
   0    38    0.994661D+00    0.116554D+01    0.214173D+01   -0.408245D+00
   0    39    0.993538D+00    0.116578D+01   -0.589398D+00   -0.408319D+00
   0    40    0.992440D+00    0.116572D+01    0.611313D+01   -0.408294D+00
   0    41    0.990774D+00    0.116485D+01    0.829097D+01   -0.408009D+00
   0    42    0.988710D+00    0.116372D+01    0.879415D+01   -0.407627D+00
   0    43    0.986058D+00    0.116183D+01    0.960324D+01   -0.407010D+00
   0    44    0.982735D+00    0.115926D+01   -0.162341D+01   -0.406144D+00
   0    45    0.978747D+00    0.115574D+01    0.925200D+00   -0.404948D+00
   0    46    0.973851D+00    0.115151D+01   -0.160128D+01   -0.403559D+00
   0    47    0.968573D+00    0.114662D+01   -0.466078D+01   -0.401787D+00
   0    48    0.962121D+00    0.114050D+01    0.960922D+01   -0.399517D+00
   0    49    0.955936D+00    0.113441D+01   -0.225244D+01   -0.397197D+00
   0    50    0.948129D+00    0.112566D+01   -0.591377D+01   -0.393744D+00
   0    51    0.940387D+00    0.111662D+01    0.463061D+02   -0.389744D+00
   0    52    0.930275D+00    0.110658D+01    0.255289D+02   -0.385250D+00
   0    53    0.922790D+00    0.109626D+01    0.439241D+01   -0.380063D+00
   0    54    0.913806D+00    0.108544D+01    0.485929D+02   -0.374260D+00
   0    55    0.903546D+00    0.107342D+01   -0.211998D+02   -0.367744D+00
   0    56    0.895298D+00    0.106197D+01    0.294143D+02   -0.360079D+00
   0    57    0.885827D+00    0.104995D+01    0.562381D+02   -0.351835D+00
   0    58    0.876164D+00    0.103700D+01    0.598622D+02   -0.342258D+00
   0    59    0.864488D+00    0.103010D+01    0.152369D+02   -0.336531D+00
   0    60    0.856222D+00    0.101838D+01    0.686594D+02   -0.325661D+00
   0    61    0.844111D+00    0.100761D+01   -0.289827D+02   -0.314263D+00
   0    62    0.831134D+00    0.991527D+00    0.903960D+02   -0.297342D+00
   0    63    0.815031D+00    0.973036D+00    0.423636D+02   -0.270836D+00
   0    64    0.794108D+00    0.954454D+00    0.144297D+03   -0.241848D+00
   0    65    0.769317D+00    0.931266D+00    0.205086D+02   -0.193453D+00
   0    66    0.727871D+00    0.888983D+00    0.137638D+03   -0.784013D-01
   0    67    0.642803D+00    0.815025D+00    0.288221D+03    0.153107D+00
   0    68    0.440315D+00    0.637699D+00    0.681631D+03    0.378961D+00
   0    69    0.211436D+00    0.369066D+00    0.380989D+03    0.447759D+00
   0    70    0.808401D-01    0.169437D+00    0.159052D+03    0.465776D+00
   0    71    0.289869D-01    0.682720D-01    0.839812D+02    0.471532D+00
   0    72    0.997854D-02    0.253320D-01    0.271499D+02    0.473566D+00
   0    73    0.338826D-02    0.909164D-02    0.848606D+01    0.474283D+00
   0    74    0.115372D-02    0.316921D-02    0.294109D+01    0.474538D+00
   0    75    0.384131D-03    0.109621D-02    0.887978D+00    0.474626D+00
   0    76    0.130334D-03    0.375965D-03    0.260521D+00    0.474657D+00
   0    77    0.444251D-04    0.128298D-03    0.892683D-01    0.474667D+00
   0    78    0.150640D-04    0.437992D-04    0.460136D-01    0.474671D+00
   0    79    0.508302D-05    0.148968D-04    0.154650D-01    0.474672D+00
   0    80    0.172771D-05    0.504882D-05    0.542446D-02    0.474672D+00
   0    81    0.584995D-06    0.170966D-05    0.142269D-02    0.474672D+00
   0    82    0.198155D-06    0.582007D-06    0.533502D-03    0.474673D+00
   0    83    0.662532D-07    0.196301D-06    0.173587D-03    0.474673D+00
   0    84    0.225560D-07    0.665777D-07    0.589610D-04    0.474673D+00
   0    85    0.779428D-08    0.224993D-07    0.223219D-04    0.474673D+00
   0    86    0.263593D-08    0.770589D-08    0.589688D-05    0.474673D+00
   0    87    0.887819D-09    0.260341D-08    0.221115D-05    0.474673D+00
   0    88    0.298315D-09    0.881101D-09    0.852134D-06    0.474673D+00
   0    89    0.102125D-09    0.298182D-09    0.240662D-06    0.474673D+00
   0    90    0.345338D-10    0.100811D-09    0.687040D-07    0.474673D+00
   0    91    0.118872D-10    0.345022D-10    0.293356D-07    0.474673D+00
   0    92    0.403286D-11    0.117519D-10    0.123784D-07    0.474673D+00
   0    93    0.135523D-11    0.395182D-11    0.306372D-08    0.474673D+00
   0    94    0.453913D-12    0.133564D-11    0.109169D-08    0.474673D+00
   0    95    0.152538D-12    0.450887D-12    0.484601D-09    0.474673D+00
   0    96    0.514444D-13    0.152007D-12    0.116228D-09    0.474673D+00
   0    97    0.174143D-13    0.510164D-13    0.405703D-10    0.474673D+00
   0    98    0.581319D-14    0.173206D-13    0.150778D-10    0.474673D+00
   0    99    0.201093D-14    0.586967D-14    0.509836D-11    0.474673D+00
   0   100    0.673041D-15    0.197606D-14    0.149329D-11    0.474673D+00
   0   101    0.227135D-15    0.670653D-15    0.459868D-12    0.474673D+00
   0   102    0.748065D-16    0.224673D-15    0.205499D-12    0.474673D+00
   0   103    0.255441D-16    0.756657D-16    0.608836D-13    0.474673D+00
   0   104    0.872093D-17    0.256433D-16    0.224753D-13    0.474673D+00
   0   105    0.298115D-17    0.869179D-17    0.669647D-14    0.474673D+00
   0   106    0.999073D-18    0.294127D-17    0.277926D-14    0.474673D+00
   0   107    0.336701D-18    0.992715D-18    0.894847D-15    0.474673D+00
   0   108    0.113032D-18    0.335624D-18    0.236352D-15    0.474673D+00
   0   109    0.384840D-19    0.112852D-18    0.932013D-16    0.474673D+00
   0   110    0.129554D-19    0.381748D-19    0.340324D-16    0.474673D+00
   0   111    0.433826D-20    0.128917D-19    0.104929D-16    0.474673D+00
   0   112    0.148101D-20    0.434959D-20    0.300980D-17    0.474673D+00
   0   113    0.496028D-21    0.147409D-20    0.133356D-17    0.474673D+00
   0   114    0.168130D-21    0.495498D-21    0.394921D-18    0.474673D+00
   0   115    0.563540D-22    0.166788D-21    0.127021D-18    0.474673D+00
   0   116    0.192946D-22    0.565590D-22    0.404399D-19    0.474673D+00
   0   117    0.654967D-23    0.192970D-22    0.175314D-19    0.474673D+00
   0   118    0.221258D-23    0.652460D-23    0.476236D-20    0.474673D+00
   0   119    0.747012D-24    0.220351D-23    0.186158D-20    0.474673D+00
   0   120    0.253066D-24    0.745683D-24    0.707487D-21    0.474673D+00
   0   121    0.865220D-25    0.252273D-24    0.224226D-21    0.474673D+00
   0   122    0.289803D-25    0.850736D-25    0.610487D-22    0.474673D+00
   0   123    0.980299D-26    0.285811D-25    0.265624D-22    0.474673D+00
   0   124    0.320365D-26    0.962157D-26    0.877037D-23    0.474673D+00
   0   125    0.109688D-26    0.322850D-26    0.291269D-23    0.474673D+00
   0   126    0.367512D-27    0.109821D-26    0.940154D-24    0.474673D+00
   0   127    0.122442D-27    0.369059D-27    0.349729D-24    0.474673D+00
   0   128    0.421109D-28    0.123859D-27    0.809598D-25    0.474673D+00
   0   129    0.139759D-28    0.413989D-28    0.304834D-25    0.474673D+00
   0   130    0.464707D-29    0.138150D-28    0.144235D-25    0.474673D+00
   0   131    0.155704D-29    0.461523D-29    0.346325D-26    0.474673D+00
   0   132    0.524955D-30    0.154061D-29    0.140547D-26    0.474673D+00
   0   133    0.174191D-30    0.512732D-30    0.481370D-27    0.474673D+00
   0   134    0.577363D-31    0.170785D-30    0.132748D-27    0.474673D+00
   0   135    0.194507D-31    0.565414D-31    0.529655D-28    0.474673D+00
   0   136    0.636436D-32    0.186047D-31    0.146204D-28    0.474673D+00
   0   137    0.208237D-32    0.612119D-32    0.549590D-29    0.474673D+00
   0   138    0.681687D-33    0.202082D-32    0.193421D-29    0.474673D+00
   0   139    0.227542D-33    0.663088D-33    0.570854D-30    0.474673D+00
   0   140    0.744267D-34    0.217353D-33    0.177368D-30    0.474673D+00
   0   141    0.242050D-34    0.711408D-34    0.780799D-31    0.474673D+00
   0   142    0.798261D-35    0.232674D-34    0.170600D-31    0.474673D+00
   0   143    0.262381D-35    0.756021D-35    0.674536D-32    0.474673D+00
   0   144    0.851507D-36    0.245558D-35    0.269651D-32    0.474673D+00
   0   145    0.276661D-36    0.790728D-36    0.868188D-33    0.474673D+00
   0   146    0.880832D-37    0.252812D-36    0.265411D-33    0.474673D+00
   0   147    0.280263D-37    0.806745D-37    0.906404D-34    0.474673D+00
   0   148    0.879899D-38    0.255234D-37    0.210803D-34    0.474673D+00
   0   149    0.282453D-38    0.812415D-38    0.906162D-35    0.474673D+00
   0   150    0.882388D-39    0.255753D-38    0.280071D-35    0.474673D+00
   0   151    0.279459D-39    0.803583D-39    0.667998D-36    0.474673D+00
   0   152    0.865794D-40    0.251052D-39    0.234565D-36    0.474673D+00
   0   153    0.270428D-40    0.779609D-40    0.944674D-37    0.474673D+00
   0   154    0.830964D-41    0.241592D-40    0.211284D-37    0.474673D+00
   0   155    0.255099D-41    0.746551D-41    0.955507D-38    0.474673D+00
   0   156    0.790249D-42    0.231049D-41    0.253810D-38    0.474673D+00
   0   157    0.245651D-42    0.712359D-42    0.867855D-39    0.474673D+00
   0   158    0.756046D-43    0.217962D-42    0.239129D-39    0.474673D+00
   0   159    0.227711D-43    0.662815D-43    0.667253D-40    0.474673D+00
   0   160    0.699552D-44    0.200704D-43    0.230347D-40    0.474673D+00
   0   161    0.212000D-44    0.605161D-44    0.768228D-41    0.474673D+00
   0   162    0.629904D-45    0.181092D-44    0.190303D-41    0.474673D+00
   0   163    0.191414D-45    0.541029D-45    0.593910D-42    0.474673D+00
   0   164    0.564175D-46    0.161024D-45    0.178170D-42    0.474673D+00
   0   165    0.166151D-46    0.475702D-46    0.661463D-43    0.474673D+00
   0   166    0.485097D-47    0.139370D-46    0.154325D-43    0.474673D+00
   0   167    0.142405D-47    0.407798D-47    0.460525D-44    0.474673D+00
   0   168    0.414939D-48    0.119646D-47    0.168000D-44    0.474673D+00
   0   169    0.123713D-48    0.347366D-48    0.454440D-45    0.474673D+00
   0   170    0.362120D-49    0.101237D-48    0.120502D-45    0.474673D+00
   0   171    0.102876D-49    0.294510D-49    0.336333D-46    0.474673D+00
   0   172    0.296757D-50    0.842515D-50    0.106676D-46    0.474673D+00
   0   173    0.856365D-51    0.241303D-50    0.295661D-47    0.474673D+00
   0   174    0.241797D-51    0.688563D-51    0.856828D-48    0.474673D+00
   0   175    0.676131D-52    0.193449D-51    0.273064D-48    0.474673D+00
   0   176    0.193096D-52    0.544138D-52    0.638860D-49    0.474673D+00
   0   177    0.540273D-53    0.153395D-52    0.184419D-49    0.474673D+00
   0   178    0.149298D-53    0.426629D-53    0.617792D-50    0.474673D+00
   0   179    0.412443D-54    0.118325D-53    0.164521D-50    0.474673D+00
   0   180    0.114960D-54    0.327246D-54    0.496280D-51    0.474673D+00
   0   181    0.318182D-55    0.897246D-55    0.126506D-51    0.474673D+00
   0   182    0.865235D-56    0.245727D-55    0.388989D-52    0.474673D+00
   0   183    0.236051D-56    0.669415D-56    0.806902D-53    0.474673D+00
   0   184    0.645728D-57    0.181179D-56    0.243397D-53    0.474673D+00
   0   185    0.172873D-57    0.486383D-57    0.667961D-54    0.474673D+00
   0   186    0.459631D-58    0.131180D-57    0.177098D-54    0.474673D+00
   0   187    0.122566D-58    0.349648D-58    0.454272D-55    0.474673D+00
   0   188    0.324131D-59    0.926559D-59    0.154801D-55    0.474673D+00
   0   189    0.876085D-60    0.245178D-59    0.335123D-56    0.474673D+00
   0   190    0.230042D-60    0.644407D-60    0.101318D-56    0.474673D+00
   0   191    0.601263D-61    0.168315D-60    0.266428D-57    0.474673D+00
   0   192    0.156445D-61    0.441447D-61    0.651865D-58    0.474673D+00
   0   193    0.410259D-62    0.114555D-61    0.181754D-58    0.474673D+00
   0   194    0.106722D-62    0.296898D-62    0.506462D-59    0.474673D+00
   0   195    0.271777D-63    0.767404D-63    0.124118D-59    0.474673D+00
   0   196    0.694904D-64    0.197699D-63    0.324363D-60    0.474673D+00
   0   197    0.181288D-64    0.507179D-64    0.849968D-61    0.474673D+00
   0   198    0.457483D-65    0.128633D-64    0.200114D-61    0.474673D+00
   0   199    0.115422D-65    0.325599D-65    0.560604D-62    0.474673D+00
   0   200    0.287690D-66    0.815247D-66    0.151186D-62    0.474673D+00
   0   201    0.709197D-67    0.203617D-66    0.298147D-63    0.474673D+00
   0   202    0.176732D-67    0.502927D-67    0.762965D-64    0.474673D+00
   0   203    0.441517D-68    0.124411D-67    0.221944D-64    0.474673D+00
   0   204    0.109977D-68    0.309650D-68    0.558240D-65    0.474673D+00
   0   205    0.271995D-69    0.761513D-69    0.143644D-65    0.474673D+00
   0   206    0.666435D-70    0.186885D-69    0.318074D-66    0.474673D+00
   0   207    0.163261D-70    0.452658D-70    0.754167D-67    0.474673D+00
   0   208    0.393597D-71    0.109906D-70    0.190007D-67    0.474673D+00
   0   209    0.952490D-72    0.267316D-71    0.482532D-68    0.474673D+00
   0   210    0.230108D-72    0.642506D-72    0.114716D-68    0.474673D+00
   0   211    0.548184D-73    0.154432D-72    0.284361D-69    0.474673D+00
   0   212    0.130680D-73    0.368948D-73    0.627423D-70    0.474673D+00
   0   213    0.314243D-74    0.872539D-74    0.161762D-70    0.474673D+00
   0   214    0.741984D-75    0.205324D-74    0.412749D-71    0.474673D+00
   0   215    0.171556D-75    0.479864D-75    0.945301D-72    0.474673D+00
   0   216    0.404061D-76    0.112023D-75    0.215834D-72    0.474673D+00
   0   217    0.946853D-77    0.263171D-76    0.443694D-73    0.474673D+00
   0   218    0.218808D-77    0.609540D-77    0.123743D-73    0.474673D+00
   0   219    0.501651D-78    0.139980D-77    0.284591D-74    0.474673D+00
   0   220    0.114939D-78    0.321704D-78    0.675482D-75    0.474673D+00
   0   221    0.266988D-79    0.737392D-79    0.129465D-75    0.474673D+00
   0   222    0.607024D-80    0.168267D-79    0.347829D-76    0.474673D+00
   0   223    0.139212D-80    0.384840D-80    0.803344D-77    0.474673D+00
   0   224    0.313265D-81    0.874382D-81    0.188380D-77    0.474673D+00
   0   225    0.698563D-82    0.195828D-81    0.408867D-78    0.474673D+00
   0   226    0.156104D-82    0.434683D-82    0.899042D-79    0.474673D+00
   0   227    0.345413D-83    0.969717D-83    0.207162D-79    0.474673D+00
   0   228    0.776610D-84    0.214321D-83    0.436557D-80    0.474673D+00
   0   229    0.171439D-84    0.473612D-84    0.101543D-80    0.474673D+00
   0   230    0.375537D-85    0.104389D-84    0.216969D-81    0.474673D+00
   0   231    0.826066D-86    0.228799D-85    0.491692D-82    0.474673D+00
   0   232    0.181006D-86    0.500886D-86    0.954571D-83    0.474673D+00
   0   233    0.392972D-87    0.108699D-86    0.218923D-83    0.474673D+00
   0   234    0.844735D-88    0.234609D-87    0.499939D-84    0.474673D+00
   0   235    0.179299D-88    0.505431D-88    0.100871D-84    0.474673D+00
   0   236    0.390178D-89    0.107780D-88    0.222877D-85    0.474673D+00
   0   237    0.844067D-90    0.232149D-89    0.499893D-86    0.474673D+00
   0   238    0.180822D-90    0.494880D-90    0.975828D-87    0.474673D+00
   0   239    0.382772D-91    0.105410D-90    0.234052D-87    0.474673D+00
   0   240    0.800046D-92    0.220628D-91    0.484247D-88    0.474673D+00
   0   241    0.167605D-92    0.460841D-92    0.101290D-88    0.474673D+00
   0   242    0.351576D-93    0.962113D-93    0.225059D-89    0.474673D+00
   0   243    0.725610D-94    0.200024D-93    0.436346D-90    0.474673D+00
   0   244    0.149054D-94    0.413447D-94    0.918879D-91    0.474673D+00
   0   245    0.308217D-95    0.850683D-95    0.200987D-91    0.474673D+00
   0   246    0.627450D-96    0.175267D-95    0.383129D-92    0.474673D+00
   0   247    0.129915D-96    0.361272D-96    0.852422D-93    0.474673D+00
   0   248    0.267648D-97    0.737674D-97    0.165417D-93    0.474673D+00
   0   249    0.546834D-98    0.150386D-97    0.322815D-94    0.474673D+00
   0   250    0.111311D-98    0.306891D-98    0.724226D-95    0.474673D+00
   0   251    0.223143D-99    0.620419D-99    0.150430D-95    0.474673D+00
   0   252    0.447502-100    0.123562D-99    0.277041D-96    0.474673D+00
   0   253    0.903290-101    0.246940-100    0.554812D-97    0.474673D+00
   0   254    0.178507-101    0.492904-101    0.119121D-97    0.474673D+00
   0   255    0.351455-102    0.977434-102    0.228540D-98    0.474673D+00
   0   256    0.697028-103    0.192417-102    0.468492D-99    0.474673D+00
   0   257    0.137225-103    0.377814-103    0.987241-100    0.474673D+00
   0   258    0.266773-104    0.739264-104    0.186673-100    0.474673D+00
   0   259    0.521506-105    0.143680-104    0.351847-101    0.474673D+00
   0   260    0.101414-105    0.277914-105    0.755216-102    0.474673D+00
   0   261    0.194758-106    0.537279-106    0.129937-102    0.474673D+00
   0   262    0.378263-107    0.103781-106    0.256643-103    0.474673D+00
   0   263    0.729713-108    0.199080-107    0.524113-104    0.474673D+00
   0   264    0.138988-108    0.382946-108    0.969491-105    0.474673D+00
   0   265    0.265984-109    0.732619-109    0.203566-105    0.474673D+00
   0   266    0.503706-110    0.139007-109    0.369702-106    0.474673D+00
   0   267    0.945569-111    0.261830-110    0.746279-107    0.474673D+00
   0   268    0.178126-111    0.494367-111    0.121230-107    0.474673D+00
   0   269    0.336467-112    0.930195-112    0.243318-108    0.474673D+00
   0   270    0.636123-113    0.173684-112    0.463299-109    0.474673D+00
   0   271    0.117411-113    0.324706-113    0.927760-110    0.474673D+00
   0   272    0.219519-114    0.603371-114    0.166293-110    0.474673D+00
   0   273    0.402200-115    0.111745-114    0.294518-111    0.474673D+00
   0   274    0.744697-116    0.206240-115    0.540267-112    0.474673D+00
   0   275    0.136263-116    0.377203-116    0.106699-112    0.474673D+00
   0   276    0.249441-117    0.688621-117    0.188431-113    0.474673D+00
   0   277    0.453258-118    0.125289-117    0.349582-114    0.474673D+00
   0   278    0.830739-119    0.226994-118    0.617521-115    0.474673D+00
   0   279    0.147489-119    0.407917-119    0.121667-115    0.474673D+00
   0   280    0.265291-120    0.729182-120    0.192320-116    0.474673D+00
   0   281    0.482076-121    0.131199-120    0.366421-117    0.474673D+00
   0   282    0.861920-122    0.235414-121    0.723406-118    0.474673D+00
   0   283    0.153070-122    0.422377-122    0.121354-118    0.474673D+00
   0   284    0.273291-123    0.746427-123    0.223159-119    0.474673D+00
   0   285    0.479477-124    0.132002-123    0.364339-120    0.474673D+00
   0   286    0.840792-125    0.231963-124    0.681988-121    0.474673D+00
   0   287    0.147844-125    0.406174-125    0.127877-121    0.474673D+00
   0   288    0.260406-126    0.711418-126    0.195699-122    0.474673D+00
   0   289    0.455098-127    0.124299-126    0.344466-123    0.474673D+00
   0   290    0.791055-128    0.215168-127    0.599059-124    0.474673D+00
   0   291    0.137235-128    0.374794-128    0.117307-124    0.474673D+00
   0   292    0.233856-129    0.646509-129    0.185059-125    0.474673D+00
   0   293    0.401283-130    0.110934-129    0.323021-126    0.474673D+00
   0   294    0.683502-131    0.188288-130    0.551974-127    0.474673D+00
   0   295    0.118278-131    0.320331-131    0.910416-128    0.474673D+00
   0   296    0.198085-132    0.543602-132    0.179587-128    0.474673D+00
   0   297    0.337380-133    0.926288-133    0.301701-129    0.474673D+00
   0   298    0.565862-134    0.156452-133    0.515036-130    0.474673D+00
   0   299    0.947229-135    0.263851-134    0.859537-131    0.474673D+00
   0   300    0.159438-135    0.442645-135    0.137196-131    0.474673D+00
   0   301    0.265344-136    0.735761-136    0.223097-132    0.474673D+00
   0   302    0.440541-137    0.122271-136    0.381681-133    0.474673D+00
   0   303    0.733187-138    0.202439-137    0.654301-134    0.474673D+00
   0   304    0.121418-138    0.332499-138    0.101691-134    0.474673D+00
   0   305    0.201632-139    0.551568-139    0.174931-135    0.474673D+00
   0   306    0.332843-140    0.905784-140    0.276095-136    0.474673D+00
   0   307    0.544837-141    0.148217-140    0.498045-137    0.474673D+00
   0   308    0.880692-142    0.241237-141    0.786574-138    0.474673D+00
   0   309    0.143471-142    0.390746-142    0.127974-138    0.474673D+00
   0   310    0.232263-143    0.631029-143    0.221682-139    0.474673D+00
   0   311    0.372148-144    0.101655-143    0.342493-140    0.474673D+00
   0   312    0.603283-145    0.163316-144    0.511579-141    0.474673D+00
   0   313    0.953118-146    0.260229-145    0.893882-142    0.474673D+00
   0   314    0.152268-146    0.416176-146    0.142325-142    0.474673D+00
   0   315    0.241645-147    0.658721-147    0.231470-143    0.474673D+00
   0   316    0.384441-148    0.104354-147    0.358064-144    0.474673D+00
   0   317    0.612394-149    0.165045-148    0.575377-145    0.474673D+00
   0   318    0.971372-150    0.258332-149    0.926014-146    0.474673D+00
   0   319    0.149410-150    0.405711-150    0.151814-146    0.474673D+00
   0   320    0.230603-151    0.632649-151    0.236263-147    0.474673D+00
   0   321    0.362262-152    0.982238-152    0.333878-148    0.474673D+00
   0   322    0.560907-153    0.152165-152    0.552664-149    0.474673D+00
   0   323    0.859564-154    0.235186-153    0.872871-150    0.474673D+00
   0   324    0.132400-154    0.361363-154    0.124227-150    0.474673D+00
   0   325    0.201923-155    0.552882-155    0.203568-151    0.474673D+00
   0   326    0.308806-156    0.844586-156    0.306067-152    0.474673D+00
   0   327    0.474049-157    0.128423-156    0.447134-153    0.474673D+00
   0   328    0.719941-158    0.194655-157    0.702610-154    0.474673D+00
   0   329    0.108302-158    0.295526-158    0.114665-154    0.474673D+00
   0   330    0.165035-159    0.447222-159    0.164229-155    0.474673D+00
   0   331    0.246393-160    0.673269-160    0.237642-156    0.474673D+00
   0   332    0.370204-161    0.100913-160    0.390401-157    0.474673D+00
   0   333    0.552059-162    0.150462-161    0.584202-158    0.474673D+00
   0   334    0.814162-163    0.223821-162    0.879333-159    0.474673D+00
   0   335    0.122143-163    0.332537-163    0.119892-159    0.474673D+00
   0   336    0.180871-164    0.494760-164    0.190910-160    0.474673D+00
   0   337    0.268229-165    0.729254-165    0.286835-161    0.474673D+00
   0   338    0.392247-166    0.107683-165    0.413027-162    0.474673D+00
   0   339    0.572481-167    0.157696-166    0.637674-163    0.474673D+00
   0   340    0.847264-168    0.229200-167    0.866129-164    0.474673D+00
   0   341    0.122363-168    0.333258-168    0.124866-164    0.474673D+00
   0   342    0.177543-169    0.483299-169    0.191585-165    0.474673D+00
   0   343    0.255165-170    0.696324-170    0.288536-166    0.474673D+00
   0   344    0.368479-171    0.100330-170    0.410895-167    0.474673D+00
   0   345    0.527392-172    0.143523-171    0.581793-168    0.474673D+00
   0   346    0.757642-173    0.205684-172    0.801929-169    0.474673D+00
   0   347    0.107685-173    0.293443-173    0.121690-169    0.474673D+00
   0   348    0.152964-174    0.419125-174    0.161419-170    0.474673D+00
   0   349    0.218134-175    0.597205-175    0.225695-171    0.474673D+00
   0   350    0.306628-176    0.845046-176    0.343036-172    0.474673D+00
   0   351    0.431661-177    0.119032-176    0.483062-173    0.474673D+00
   0   352    0.614511-178    0.167504-177    0.698739-174    0.474673D+00
   0   353    0.869541-179    0.235139-178    0.968329-175    0.474673D+00
   0   354    0.121499-179    0.328571-179    0.138713-175    0.474673D+00
   0   355    0.169636-180    0.459005-180    0.184063-176    0.474673D+00
   0   356    0.235171-181    0.637712-181    0.263963-177    0.474673D+00
   0   357    0.323992-182    0.882347-182    0.375967-178    0.474673D+00
   0   358    0.446603-183    0.121471-182    0.532750-179    0.474673D+00
   0   359    0.610297-184    0.167801-183    0.700152-180    0.474673D+00
   0   360    0.840118-185    0.231100-184    0.963378-181    0.474673D+00
   0   361    0.114320-185    0.315327-185    0.127462-181    0.474673D+00
   0   362    0.156772-186    0.428813-186    0.173631-182    0.474673D+00
   0   363    0.214166-187    0.585808-187    0.253788-183    0.474673D+00
   0   364    0.290779-188    0.793034-188    0.330763-184    0.474673D+00
   0   365    0.404349-189    0.108050-188    0.428045-185    0.474673D+00
   0   366    0.543674-190    0.145540-189    0.647108-186    0.474673D+00
   0   367    0.728286-191    0.195006-190    0.818032-187    0.474673D+00
   0   368    0.963555-192    0.261596-191    0.120682-187    0.474673D+00
   0   369    0.128615-192    0.348380-192    0.149221-188    0.474673D+00
   0   370    0.170110-193    0.459928-193    0.209173-189    0.474673D+00
   0   371    0.222914-194    0.609423-194    0.269841-190    0.474673D+00
   0   372    0.296561-195    0.803260-195    0.347519-191    0.474673D+00
   0   373    0.387689-196    0.105809-195    0.476557-192    0.474673D+00
   0   374    0.515234-197    0.138614-196    0.630786-193    0.474673D+00
   0   375    0.668757-198    0.181965-197    0.838772-194    0.474673D+00
   0   376    0.877488-199    0.238126-198    0.107667-194    0.474673D+00
   0   377    0.113654-199    0.310751-199    0.143526-195    0.474673D+00
   0   378    0.147658-200    0.403550-200    0.188793-196    0.474673D+00
   0   379    0.192454-201    0.521623-201    0.223723-197    0.474673D+00
   0   380    0.246875-202    0.671628-202    0.306794-198    0.474673D+00
   0   381    0.318684-203    0.861691-203    0.378516-199    0.474673D+00
   0   382    0.405524-204    0.110261-203    0.509403-200    0.474673D+00
   0   383    0.518982-205    0.140821-204    0.654455-201    0.474673D+00
   0   384    0.657131-206    0.178568-205    0.844358-202    0.474673D+00
   0   385    0.832341-207    0.227170-206    0.109537-202    0.474673D+00
   0   386    0.105447-207    0.289060-207    0.130312-203    0.474673D+00
   0   387    0.134418-208    0.364058-208    0.174925-204    0.474673D+00
   0   388    0.168796-209    0.456603-209    0.223510-205    0.474673D+00
   0   389    0.209907-210    0.572516-210    0.276210-206    0.474673D+00
   0   390    0.263519-211    0.714866-211    0.332928-207    0.474673D+00
   0   391    0.327096-212    0.892307-212    0.420523-208    0.474673D+00
   0   392    0.410892-213    0.112106-212    0.525167-209    0.474673D+00
   0   393    0.519148-214    0.139697-213    0.654569-210    0.474673D+00
   0   394    0.647884-215    0.173375-214    0.847189-211    0.474673D+00
   0   395    0.797947-216    0.213946-215    0.106036-211    0.474673D+00
   0   396    0.973749-217    0.263649-216    0.132690-212    0.474673D+00
   0   397    0.118280-217    0.323363-217    0.162466-213    0.474673D+00