variables =  "IG"  "JG"  "PHI"  "Temp."  "Latent_heat"  "mm"
ZONE  I=  401  J=  101
   0     0    0.100000D+01    0.194954D+00   -0.896703D-09    0.463844D+00
   0     1    0.100000D+01    0.194954D+00    0.362696D-08    0.463844D+00
   0     2    0.100000D+01    0.210016D+00    0.184828D-07    0.462742D+00
   0     3    0.100000D+01    0.239471D+00    0.307837D-06    0.460439D+00
   0     4    0.100000D+01    0.282040D+00   -0.393358D-06    0.456708D+00
   0     5    0.100000D+01    0.335933D+00    0.143185D-05    0.451147D+00
   0     6    0.100000D+01    0.398996D+00    0.157690D-04    0.443065D+00
   0     7    0.100000D+01    0.468869D+00    0.282844D-03    0.431248D+00
   0     8    0.999999D+00    0.543145D+00    0.364227D-03    0.413448D+00
   0     9    0.999994D+00    0.619509D+00    0.491528D-02    0.385148D+00
   0    10    0.999969D+00    0.695841D+00    0.310952D-01    0.336340D+00
   0    11    0.999853D+00    0.770269D+00    0.148324D+00    0.243538D+00
   0    12    0.999344D+00    0.841162D+00    0.109566D+00    0.694833D-01
   0    13    0.997574D+00    0.907060D+00    0.218159D+01   -0.135927D+00
   0    14    0.993029D+00    0.966179D+00    0.197335D+01   -0.261649D+00
   0    15    0.983820D+00    0.101626D+01    0.162971D+02   -0.323988D+00
   0    16    0.967757D+00    0.105451D+01    0.293872D+02   -0.355341D+00
   0    17    0.944694D+00    0.107817D+01    0.435989D+02   -0.370561D+00
   0    18    0.916499D+00    0.108534D+01    0.433918D+02   -0.374805D+00
   0    19    0.887291D+00    0.107662D+01    0.331772D+02   -0.369186D+00
   0    20    0.864018D+00    0.105679D+01    0.350841D+01   -0.356536D+00
   0    21    0.847024D+00    0.103310D+01   -0.375372D+02   -0.338798D+00
   0    22    0.837361D+00    0.101221D+01    0.148510D+02   -0.318913D+00
   0    23    0.828655D+00    0.996225D+00    0.102033D+02   -0.301977D+00
   0    24    0.819973D+00    0.982314D+00    0.585880D+02   -0.285449D+00
   0    25    0.804108D+00    0.966812D+00    0.263444D+02   -0.262863D+00
   0    26    0.783039D+00    0.944287D+00   -0.451326D+01   -0.220884D+00
   0    27    0.752416D+00    0.911252D+00    0.172699D+03   -0.146595D+00
   0    28    0.693677D+00    0.860439D+00    0.919468D+02    0.143087D-01
   0    29    0.558551D+00    0.746567D+00    0.562179D+03    0.285949D+00
   0    30    0.320395D+00    0.506162D+00    0.499562D+03    0.424520D+00
   0    31    0.135833D+00    0.258491D+00    0.362875D+03    0.459192D+00
   0    32    0.497904D-01    0.110630D+00    0.122083D+03    0.469316D+00
   0    33    0.174123D-01    0.427377D-01    0.521867D+02    0.472770D+00
   0    34    0.600142D-02    0.156784D-01    0.167105D+02    0.473995D+00
   0    35    0.204116D-02    0.551740D-02    0.545716D+01    0.474438D+00
   0    36    0.682683D-03    0.191130D-02    0.204861D+01    0.474591D+00
   0    37    0.230506D-03    0.657406D-03    0.680459D+00    0.474645D+00
   0    38    0.779739D-04    0.224310D-03    0.187233D+00    0.474663D+00
   0    39    0.264363D-04    0.758364D-04    0.567772D-01    0.474669D+00
   0    40    0.890185D-05    0.256764D-04    0.221243D-01    0.474671D+00
   0    41    0.300295D-05    0.864125D-05    0.666671D-02    0.474672D+00
   0    42    0.100818D-05    0.291747D-05    0.213044D-02    0.474672D+00
   0    43    0.343158D-06    0.983604D-06    0.699136D-03    0.474673D+00
   0    44    0.114415D-06    0.329491D-06    0.245382D-03    0.474673D+00
   0    45    0.383077D-07    0.110249D-06    0.115463D-03    0.474673D+00
   0    46    0.126744D-07    0.365372D-07    0.394283D-04    0.474673D+00
   0    47    0.419464D-08    0.120040D-07    0.119775D-04    0.474673D+00
   0    48    0.138345D-08    0.393825D-08    0.394107D-05    0.474673D+00
   0    49    0.448343D-09    0.128928D-08    0.135474D-05    0.474673D+00
   0    50    0.143863D-09    0.416668D-09    0.333286D-06    0.474673D+00
   0    51    0.467921D-10    0.133419D-09    0.145290D-06    0.474673D+00
   0    52    0.150507D-10    0.425077D-10    0.472784D-07    0.474673D+00
   0    53    0.470352D-11    0.134596D-10    0.124806D-07    0.474673D+00
   0    54    0.144401D-11    0.419582D-11    0.406575D-08    0.474673D+00
   0    55    0.445812D-12    0.129439D-11    0.121185D-08    0.474673D+00
   0    56    0.138680D-12    0.394383D-12    0.377694D-09    0.474673D+00
   0    57    0.420204D-13    0.120110D-12    0.123511D-09    0.474673D+00
   0    58    0.125709D-13    0.362598D-13    0.361182D-10    0.474673D+00
   0    59    0.374642D-14    0.107051D-13    0.103140D-10    0.474673D+00
   0    60    0.110322D-14    0.313837D-14    0.359985D-11    0.474673D+00
   0    61    0.322631D-15    0.907505D-15    0.110436D-11    0.474673D+00
   0    62    0.911304D-16    0.258361D-15    0.301275D-12    0.474673D+00
   0    63    0.257683D-16    0.727757D-16    0.101213D-12    0.474673D+00
   0    64    0.718254D-17    0.203330D-16    0.243431D-13    0.474673D+00
   0    65    0.198035D-17    0.562182D-17    0.836411D-14    0.474673D+00
   0    66    0.539155D-18    0.153057D-17    0.203592D-14    0.474673D+00
   0    67    0.146382D-18    0.410343D-18    0.621621D-15    0.474673D+00
   0    68    0.392964D-19    0.109014D-18    0.176249D-15    0.474673D+00
   0    69    0.103460D-19    0.285611D-19    0.432711D-16    0.474673D+00
   0    70    0.267126D-20    0.740725D-20    0.122099D-16    0.474673D+00
   0    71    0.671841D-21    0.190876D-20    0.292993D-17    0.474673D+00
   0    72    0.171728D-21    0.481222D-21    0.697486D-18    0.474673D+00
   0    73    0.429726D-22    0.120436D-21    0.190463D-18    0.474673D+00
   0    74    0.105570D-22    0.295684D-22    0.526559D-19    0.474673D+00
   0    75    0.254920D-23    0.719007D-23    0.125814D-19    0.474673D+00
   0    76    0.614444D-24    0.171574D-23    0.320249D-20    0.474673D+00
   0    77    0.144834D-24    0.405949D-24    0.674581D-21    0.474673D+00
   0    78    0.341765D-25    0.950466D-25    0.177773D-21    0.474673D+00
   0    79    0.785305D-26    0.218196D-25    0.379490D-22    0.474673D+00
   0    80    0.178227D-26    0.498749D-26    0.101191D-22    0.474673D+00
   0    81    0.403056D-27    0.112536D-26    0.219324D-23    0.474673D+00
   0    82    0.895275D-28    0.250098D-27    0.488642D-24    0.474673D+00
   0    83    0.198362D-28    0.553838D-28    0.117521D-24    0.474673D+00
   0    84    0.433250D-29    0.120571D-28    0.234122D-25    0.474673D+00
   0    85    0.933920D-30    0.260669D-29    0.582509D-26    0.474673D+00
   0    86    0.197570D-30    0.550865D-30    0.128538D-26    0.474673D+00
   0    87    0.414340D-31    0.114880D-30    0.276111D-27    0.474673D+00
   0    88    0.860385D-32    0.238374D-31    0.563615D-28    0.474673D+00
   0    89    0.179390D-32    0.489278D-32    0.107384D-28    0.474673D+00
   0    90    0.356586D-33    0.987878D-33    0.259941D-29    0.474673D+00
   0    91    0.711228D-34    0.197797D-33    0.491371D-30    0.474673D+00
   0    92    0.141941D-34    0.392197D-34    0.907410D-31    0.474673D+00
   0    93    0.281054D-35    0.767652D-35    0.187761D-31    0.474673D+00
   0    94    0.543809D-36    0.148088D-35    0.390053D-32    0.474673D+00
   0    95    0.103407D-36    0.282837D-36    0.797973D-33    0.474673D+00
   0    96    0.194758D-37    0.533802D-37    0.142653D-33    0.474673D+00
   0    97    0.361849D-38    0.992730D-38    0.255876D-34    0.474673D+00
   0    98    0.677410D-39    0.183377D-38    0.517069D-35    0.474673D+00
   0    99    0.122694D-39    0.333962D-39    0.917539D-36    0.474673D+00
   0   100    0.219913D-40    0.600309D-40    0.171781D-36    0.474673D+00
   0   101    0.392265D-41    0.107057D-40    0.323435D-37    0.474673D+00
   0   102    0.690641D-42    0.188387D-41    0.574409D-38    0.474673D+00
   0   103    0.120011D-42    0.327136D-42    0.100992D-38    0.474673D+00
   0   104    0.208849D-43    0.563231D-43    0.160506D-39    0.474673D+00
   0   105    0.353537D-44    0.962072D-44    0.302084D-40    0.474673D+00
   0   106    0.596412D-45    0.162947D-44    0.510445D-41    0.474673D+00
   0   107    0.100629D-45    0.272901D-45    0.813964D-42    0.474673D+00
   0   108    0.166001D-46    0.451227D-46    0.156132D-42    0.474673D+00
   0   109    0.271493D-47    0.742514D-47    0.241194D-43    0.474673D+00
   0   110    0.441648D-48    0.120545D-47    0.405069D-44    0.474673D+00
   0   111    0.709633D-49    0.193000D-48    0.630074D-45    0.474673D+00
   0   112    0.113011D-49    0.305893D-49    0.104116D-45    0.474673D+00
   0   113    0.176619D-50    0.481011D-50    0.163896D-46    0.474673D+00
   0   114    0.274272D-51    0.747245D-51    0.278851D-47    0.474673D+00
   0   115    0.422439D-52    0.115020D-51    0.388442D-48    0.474673D+00
   0   116    0.655158D-53    0.176454D-52    0.610940D-49    0.474673D+00
   0   117    0.989476D-54    0.265976D-53    0.958381D-50    0.474673D+00
   0   118    0.146167D-54    0.396830D-54    0.149607D-50    0.474673D+00
   0   119    0.217998D-55    0.585762D-55    0.207146D-51    0.474673D+00
   0   120    0.316918D-56    0.863285D-56    0.333492D-52    0.474673D+00
   0   121    0.465134D-57    0.125663D-56    0.499877D-53    0.474673D+00
   0   122    0.669205D-58    0.181410D-57    0.751802D-54    0.474673D+00
   0   123    0.955846D-59    0.258165D-58    0.979759D-55    0.474673D+00
   0   124    0.134452D-59    0.364917D-59    0.156367D-55    0.474673D+00
   0   125    0.187297D-60    0.510935D-60    0.213216D-56    0.474673D+00
   0   126    0.261771D-61    0.710150D-61    0.303493D-57    0.474673D+00
   0   127    0.361449D-62    0.976733D-62    0.412632D-58    0.474673D+00
   0   128    0.492295D-63    0.132931D-62    0.595757D-59    0.474673D+00
   0   129    0.667431D-64    0.179255D-63    0.745433D-60    0.474673D+00
   0   130    0.883907D-65    0.240401D-64    0.101266D-60    0.474673D+00
   0   131    0.117236D-65    0.317091D-65    0.135670D-61    0.474673D+00
   0   132    0.154253D-66    0.418227D-66    0.181381D-62    0.474673D+00
   0   133    0.201554D-67    0.543849D-67    0.240117D-63    0.474673D+00
   0   134    0.258300D-68    0.697828D-68    0.325333D-64    0.474673D+00
   0   135    0.330923D-69    0.888673D-69    0.430686D-65    0.474673D+00
   0   136    0.418768D-70    0.113279D-69    0.512627D-66    0.474673D+00
   0   137    0.527502D-71    0.141744D-70    0.703306D-67    0.474673D+00
   0   138    0.652589D-72    0.176198D-71    0.838329D-68    0.474673D+00
   0   139    0.803687D-73    0.217368D-72    0.108193D-68    0.474673D+00
   0   140    0.988712D-74    0.265100D-73    0.129155D-69    0.474673D+00
   0   141    0.119811D-74    0.320997D-74    0.163730D-70    0.474673D+00
   0   142    0.142757D-75    0.384322D-75    0.188342D-71    0.474673D+00
   0   143    0.169025D-76    0.457554D-76    0.234231D-72    0.474673D+00
   0   144    0.201276D-77    0.541898D-77    0.270225D-73    0.474673D+00
   0   145    0.235605D-78    0.636041D-78    0.332193D-74    0.474673D+00
   0   146    0.275111D-79    0.734902D-79    0.373803D-75    0.474673D+00
   0   147    0.317561D-80    0.846905D-80    0.436918D-76    0.474673D+00
   0   148    0.361919D-81    0.970612D-81    0.516342D-77    0.474673D+00
   0   149    0.410874D-82    0.110301D-81    0.578332D-78    0.474673D+00
   0   150    0.460926D-83    0.124603D-82    0.677961D-79    0.474673D+00
   0   151    0.524282D-84    0.139575D-83    0.792350D-80    0.474673D+00
   0   152    0.577176D-85    0.155592D-84    0.895705D-81    0.474673D+00
   0   153    0.629131D-86    0.171409D-85    0.100523D-81    0.474673D+00
   0   154    0.686721D-87    0.187028D-86    0.103111D-82    0.474673D+00
   0   155    0.744150D-88    0.202062D-87    0.117563D-83    0.474673D+00
   0   156    0.795943D-89    0.216796D-88    0.129625D-84    0.474673D+00
   0   157    0.853619D-90    0.231466D-89    0.129470D-85    0.474673D+00
   0   158    0.901856D-91    0.244668D-90    0.146431D-86    0.474673D+00
   0   159    0.956690D-92    0.258169D-91    0.155718D-87    0.474673D+00
   0   160    0.985253D-93    0.267584D-92    0.165794D-88    0.474673D+00
   0   161    0.101568D-93    0.275187D-93    0.162037D-89    0.474673D+00
   0   162    0.104162D-94    0.281451D-94    0.168476D-90    0.474673D+00
   0   163    0.105918D-95    0.287926D-95    0.176621D-91    0.474673D+00
   0   164    0.106944D-96    0.289177D-96    0.186433D-92    0.474673D+00
   0   165    0.107809D-97    0.288408D-97    0.182518D-93    0.474673D+00
   0   166    0.107246D-98    0.287303D-98    0.189369D-94    0.474673D+00
   0   167    0.106200D-99    0.283928D-99    0.184118D-95    0.474673D+00
   0   168    0.104020-100    0.279478-100    0.183094D-96    0.474673D+00
   0   169    0.102593-101    0.274295-101    0.175237D-97    0.474673D+00
   0   170    0.993460-103    0.264768-102    0.181978D-98    0.474673D+00
   0   171    0.953685-104    0.253651-103    0.172264D-99    0.474673D+00
   0   172    0.902834-105    0.240978-104    0.162764-100    0.474673D+00
   0   173    0.843374-106    0.227133-105    0.161476-101    0.474673D+00
   0   174    0.798604-107    0.212576-106    0.146812-102    0.474673D+00
   0   175    0.735903-108    0.198287-107    0.141373-103    0.474673D+00
   0   176    0.683006-109    0.184239-108    0.132247-104    0.474673D+00
   0   177    0.629990-110    0.169514-109    0.118570-105    0.474673D+00
   0   178    0.575007-111    0.154435-110    0.107590-106    0.474673D+00
   0   179    0.521500-112    0.138883-111    0.977894-108    0.474673D+00
   0   180    0.471000-113    0.125397-112    0.933135-109    0.474673D+00
   0   181    0.418259-114    0.112086-113    0.846961-110    0.474673D+00
   0   182    0.370993-115    0.994104-115    0.756879-111    0.474673D+00
   0   183    0.327072-116    0.881191-116    0.652109-112    0.474673D+00
   0   184    0.286592-117    0.774483-117    0.589003-113    0.474673D+00
   0   185    0.249674-118    0.672387-118    0.507022-114    0.474673D+00
   0   186    0.214792-119    0.577656-119    0.450764-115    0.474673D+00
   0   187    0.182850-120    0.493754-120    0.389368-116    0.474673D+00
   0   188    0.156365-121    0.420912-121    0.329545-117    0.474673D+00
   0   189    0.133341-122    0.357909-122    0.280515-118    0.474673D+00
   0   190    0.112113-123    0.301395-123    0.237549-119    0.474673D+00
   0   191    0.935075-125    0.251521-124    0.205217-120    0.474673D+00
   0   192    0.773667-126    0.207435-125    0.162803-121    0.474673D+00
   0   193    0.640777-127    0.170847-126    0.140314-122    0.474673D+00
   0   194    0.526199-128    0.140053-127    0.116147-123    0.474673D+00
   0   195    0.422693-129    0.114102-128    0.965100-125    0.474673D+00
   0   196    0.341522-130    0.919972-130    0.751086-126    0.474673D+00
   0   197    0.272912-131    0.738784-131    0.600774-127    0.474673D+00
   0   198    0.215192-132    0.586955-132    0.492916-128    0.474673D+00
   0   199    0.173083-133    0.462720-133    0.390872-129    0.474673D+00
   0   200    0.136163-134    0.364167-134    0.316276-130    0.474673D+00
   0   201    0.105319-135    0.283948-135    0.242251-131    0.474673D+00
   0   202    0.821325-137    0.220160-136    0.186994-132    0.474673D+00
   0   203    0.636423-138    0.170257-137    0.151671-133    0.474673D+00
   0   204    0.483860-139    0.130573-138    0.114459-134    0.474673D+00
   0   205    0.372025-140    0.995846-140    0.888029-136    0.474673D+00
   0   206    0.280892-141    0.755696-141    0.683673-137    0.474673D+00
   0   207    0.210407-142    0.569840-142    0.509987-138    0.474673D+00
   0   208    0.157813-143    0.423750-143    0.384783-139    0.474673D+00
   0   209    0.116949-144    0.314153-144    0.283631-140    0.474673D+00
   0   210    0.869038-146    0.232437-145    0.214640-141    0.474673D+00
   0   211    0.637320-147    0.171457-146    0.160982-142    0.474673D+00
   0   212    0.467688-148    0.125491-147    0.116831-143    0.474673D+00
   0   213    0.342252-149    0.912954-149    0.845472-145    0.474673D+00
   0   214    0.245537-150    0.657986-150    0.626240-146    0.474673D+00
   0   215    0.176252-151    0.475002-151    0.445396-147    0.474673D+00
   0   216    0.126578-152    0.340385-152    0.318911-148    0.474673D+00
   0   217    0.894762-154    0.241947-153    0.229207-149    0.474673D+00
   0   218    0.635403-155    0.170627-154    0.167891-150    0.474673D+00
   0   219    0.443456-156    0.119428-155    0.115911-151    0.474673D+00
   0   220    0.308607-157    0.830137-157    0.825073-153    0.474673D+00
   0   221    0.215745-158    0.574833-158    0.574521-154    0.474673D+00
   0   222    0.147882-159    0.394357-159    0.402600-155    0.474673D+00
   0   223    0.101002-160    0.269779-160    0.269389-156    0.474673D+00
   0   224    0.687631-162    0.184048-161    0.189754-157    0.474673D+00
   0   225    0.460676-163    0.124682-162    0.126570-158    0.474673D+00
   0   226    0.310511-164    0.834204-164    0.850954-160    0.474673D+00
   0   227    0.208267-165    0.556704-165    0.562839-161    0.474673D+00
   0   228    0.139029-166    0.368941-166    0.387767-162    0.474673D+00
   0   229    0.914155-168    0.242601-167    0.256390-163    0.474673D+00
   0   230    0.600508-169    0.159379-168    0.170789-164    0.474673D+00
   0   231    0.389975-170    0.103407-169    0.111374-165    0.474673D+00
   0   232    0.251033-171    0.671939-171    0.740178-167    0.474673D+00
   0   233    0.162273-172    0.434523-172    0.463086-168    0.474673D+00
   0   234    0.104105-173    0.279313-173    0.299870-169    0.474673D+00
   0   235    0.664480-175    0.177604-174    0.198393-170    0.474673D+00
   0   236    0.419002-176    0.112159-175    0.125549-171    0.474673D+00
   0   237    0.264398-177    0.704138-177    0.779433-173    0.474673D+00
   0   238    0.165677-178    0.440850-178    0.501836-174    0.474673D+00
   0   239    0.102644-179    0.274162-179    0.306348-175    0.474673D+00
   0   240    0.635399-181    0.169482-180    0.192110-176    0.474673D+00
   0   241    0.391561-182    0.104683-181    0.121368-177    0.474673D+00
   0   242    0.239417-183    0.642334-183    0.740997-179    0.474673D+00
   0   243    0.145543-184    0.392610-184    0.451980-180    0.474673D+00
   0   244    0.882956-186    0.237351-185    0.276906-181    0.474673D+00
   0   245    0.538807-187    0.142981-186    0.167674-182    0.474673D+00
   0   246    0.323133-188    0.859203-188    0.101098-183    0.474673D+00
   0   247    0.191685-189    0.514640-189    0.613602-185    0.474673D+00
   0   248    0.113821-190    0.304956-190    0.360902-186    0.474673D+00
   0   249    0.673841-192    0.179596-191    0.218143-187    0.474673D+00
   0   250    0.395649-193    0.105436-192    0.125583-188    0.474673D+00
   0   251    0.231003-194    0.617649-194    0.748074-190    0.474673D+00
   0   252    0.133849-195    0.358177-195    0.434369-191    0.474673D+00
   0   253    0.773278-197    0.206462-196    0.251962-192    0.474673D+00
   0   254    0.443015-198    0.118313-197    0.147403-193    0.474673D+00
   0   255    0.254795-199    0.675163-199    0.851195-195    0.474673D+00
   0   256    0.144362-200    0.382941-200    0.486047-196    0.474673D+00
   0   257    0.813162-202    0.216685-201    0.275322-197    0.474673D+00
   0   258    0.456053-203    0.121416-202    0.153420-198    0.474673D+00
   0   259    0.255447-204    0.677212-204    0.860043-200    0.474673D+00
   0   260    0.141341-205    0.375577-205    0.494020-201    0.474673D+00
   0   261    0.777542-207    0.208059-206    0.269453-202    0.474673D+00
   0   262    0.428563-208    0.114246-207    0.149995-203    0.474673D+00
   0   263    0.234366-209    0.624952-209    0.814765-205    0.474673D+00
   0   264    0.127232-210    0.339857-210    0.446912-206    0.474673D+00
   0   265    0.681718-212    0.183302-211    0.241796-207    0.474673D+00
   0   266    0.371058-213    0.986658-213    0.128950-208    0.474673D+00
   0   267    0.199268-214    0.527390-214    0.701619-210    0.474673D+00
   0   268    0.105861-215    0.282277-215    0.380086-211    0.474673D+00
   0   269    0.560965-217    0.149531-216    0.201745-212    0.474673D+00
   0   270    0.296710-218    0.789687-218    0.107431-213    0.474673D+00
   0   271    0.155804-219    0.414042-219    0.573748-215    0.474673D+00
   0   272    0.810896-221    0.215625-220    0.298891-216    0.474673D+00
   0   273    0.419518-222    0.112241-221    0.154849-217    0.474673D+00
   0   274    0.216427-223    0.579136-223    0.795806-219    0.474673D+00
   0   275    0.111777-224    0.297832-224    0.409563-220    0.474673D+00
   0   276    0.564136-226    0.152224-225    0.218257-221    0.474673D+00
   0   277    0.287557-227    0.776676-227    0.109451-222    0.474673D+00
   0   278    0.146664-228    0.395169-228    0.553981-224    0.474673D+00
   0   279    0.735417-230    0.198795-229    0.283187-225    0.474673D+00
   0   280    0.370150-231    0.990986-231    0.142481-226    0.474673D+00
   0   281    0.186539-232    0.495205-232    0.710635-228    0.474673D+00
   0   282    0.926195-234    0.246076-233    0.364017-229    0.474673D+00
   0   283    0.459331-235    0.121575-234    0.179991-230    0.474673D+00
   0   284    0.226387-236    0.597931-236    0.889889-232    0.474673D+00
   0   285    0.110817-237    0.293361-237    0.431705-233    0.474673D+00
   0   286    0.538021-239    0.142734-238    0.212660-234    0.474673D+00
   0   287    0.260025-240    0.689106-240    0.103169-235    0.474673D+00
   0   288    0.124075-241    0.331410-241    0.496728-237    0.474673D+00
   0   289    0.597025-243    0.159013-242    0.236793-238    0.474673D+00
   0   290    0.283824-244    0.756632-244    0.114621-239    0.474673D+00
   0   291    0.134947-245    0.359272-245    0.553689-241    0.474673D+00
   0   292    0.638207-247    0.169877-246    0.259145-242    0.474673D+00
   0   293    0.301591-248    0.798289-248    0.121949-243    0.474673D+00
   0   294    0.141066-249    0.374543-249    0.593186-245    0.474673D+00
   0   295    0.656487-251    0.175046-250    0.269974-246    0.474673D+00
   0   296    0.304853-252    0.811397-252    0.126579-247    0.474673D+00
   0   297    0.140464-253    0.374721-253    0.584259-249    0.474673D+00
   0   298    0.648388-255    0.171766-254    0.269405-250    0.474673D+00
   0   299    0.295542-256    0.786394-256    0.124668-251    0.474673D+00
   0   300    0.133987-257    0.357887-257    0.576404-253    0.474673D+00
   0   301    0.606955-259    0.161846-258    0.257839-254    0.474673D+00
   0   302    0.271014-260    0.725344-260    0.118609-255    0.474673D+00
   0   303    0.120766-261    0.325200-261    0.535416-257    0.474673D+00
   0   304    0.539931-263    0.144655-262    0.234503-258    0.474673D+00
   0   305    0.241800-264    0.642502-264    0.104160-259    0.474673D+00
   0   306    0.106082-265    0.282714-265    0.472250-261    0.474673D+00
   0   307    0.464429-267    0.123708-266    0.209564-262    0.474673D+00
   0   308    0.203614-268    0.540724-268    0.899561-264    0.474673D+00
   0   309    0.886078-270    0.236162-269    0.402874-265    0.474673D+00
   0   310    0.384840-271    0.102482-270    0.173587-266    0.474673D+00
   0   311    0.165984-272    0.442477-272    0.755714-268    0.474673D+00
   0   312    0.714338-274    0.189919-273    0.327361-269    0.474673D+00
   0   313    0.303798-275    0.807207-275    0.141514-270    0.474673D+00
   0   314    0.128924-276    0.343262-276    0.600953-272    0.474673D+00
   0   315    0.543746-278    0.145345-277    0.249664-273    0.474673D+00
   0   316    0.229944-279    0.611580-279    0.105693-274    0.474673D+00
   0   317    0.960993-281    0.255950-280    0.454955-276    0.474673D+00
   0   318    0.399362-282    0.106584-281    0.186576-277    0.474673D+00
   0   319    0.165162-283    0.440096-283    0.783938-279    0.474673D+00
   0   320    0.684053-285    0.181422-284    0.321983-280    0.474673D+00
   0   321    0.280187-286    0.744788-286    0.136023-281    0.474673D+00
   0   322    0.114712-287    0.304420-287    0.547684-283    0.474673D+00
   0   323    0.468192-289    0.124307-288    0.226233-284    0.474673D+00
   0   324    0.189433-290    0.504652-290    0.912294-286    0.474673D+00
   0   325    0.768333-292    0.203780-291    0.369551-287    0.474673D+00
   0   326    0.307538-293    0.819434-293    0.149851-288    0.474673D+00
   0   327    0.122721-294    0.328004-294    0.599956-290    0.474673D+00
   0   328    0.492303-296    0.130593-295    0.242357-291    0.474673D+00
   0   329    0.196270-297    0.519263-297    0.969860-293    0.474673D+00
   0   330    0.773617-299    0.204209-298    0.387948-294    0.474673D+00
   0   331    0.304797-300    0.800376-300    0.151723-295    0.474673D+00
   0   332    0.118388-301    0.312474-301    0.604685-297    0.474673D+00
   0   333    0.458548-303    0.121977-302    0.231563-298    0.474673D+00
   0   334    0.176736-304    0.472708-304    0.908338-300    0.474673D+00
   0   335    0.684954-306    0.182192-305    0.351204-301    0.474673D+00
   0   336    0.263007-307    0.702308-307    0.134356-302    0.474673D+00
   0   337    0.100127-308    0.268653-308    0.524804-304    0.474673D+00
   0   338    0.381921-310    0.102262-309    0.196003-305    0.474673D+00
   0   339    0.145782-311    0.386325-311    0.758140-307    0.474673D+00
   0   340    0.545379-313    0.145577-312    0.286591-308    0.474673D+00
   0   341    0.206306-314    0.544981-314    0.108062-309    0.474673D+00
   0   342    0.772425-316    0.204248-315    0.410784-311    0.474673D+00
   0   343    0.286044-317    0.759296-317    0.153917-312    0.474673D+00
   0   344    0.106106-318    0.280881-318    0.563976-314    0.474673D+00
   0   345    0.372525-320    0.102272-319    0.223318-315    0.474673D+00
   0   346    0.000000D+00    0.197626-321    0.000000D+00    0.474673D+00
   0   347    0.000000D+00    0.000000D+00    0.000000D+00    0.474673D+00
   0   348    0.000000D+00    0.000000D+00    0.000000D+00    0.474673D+00
   0   349    0.000000D+00    0.000000D+00    0.000000D+00    0.474673D+00
   0   350    0.000000D+00    0.000000D+00    0.000000D+00    0.474673D+00
   0   351    0.000000D+00    0.000000D+00    0.000000D+00    0.474673D+00
   0   352    0.000000D+00    0.000000D+00    0.000000D+00    0.474673D+00
   0   353    0.000000D+00    0.000000D+00    0.000000D+00    0.474673D+00
   0   354    0.000000D+00    0.000000D+00    0.000000D+00    0.474673D+00
   0   355    0.000000D+00    0.000000D+00    0.000000D+00    0.474673D+00
   0   356    0.000000D+00    0.000000D+00    0.000000D+00    0.474673D+00
   0   357    0.000000D+00    0.000000D+00    0.000000D+00    0.474673D+00
   0   358    0.000000D+00    0.000000D+00    0.000000D+00    0.474673D+00
   0   359    0.000000D+00    0.000000D+00    0.000000D+00    0.474673D+00
   0   360    0.000000D+00    0.000000D+00    0.000000D+00    0.474673D+00
   0   361    0.000000D+00    0.000000D+00    0.000000D+00    0.474673D+00
   0   362    0.000000D+00    0.000000D+00    0.000000D+00    0.474673D+00
   0   363    0.000000D+00    0.000000D+00    0.000000D+00    0.474673D+00
   0   364    0.000000D+00    0.000000D+00    0.000000D+00    0.474673D+00
   0   365    0.000000D+00    0.000000D+00    0.000000D+00    0.474673D+00
   0   366    0.000000D+00    0.000000D+00    0.000000D+00    0.474673D+00
   0   367    0.000000D+00    0.000000D+00    0.000000D+00    0.474673D+00
   0   368    0.000000D+00    0.000000D+00    0.000000D+00    0.474673D+00
   0   369    0.000000D+00    0.000000D+00    0.000000D+00    0.474673D+00
   0   370    0.000000D+00    0.000000D+00    0.000000D+00    0.474673D+00
   0   371    0.000000D+00    0.000000D+00    0.000000D+00    0.474673D+00
   0   372    0.000000D+00    0.000000D+00    0.000000D+00    0.474673D+00
   0   373    0.000000D+00    0.000000D+00    0.000000D+00    0.474673D+00
   0   374    0.000000D+00    0.000000D+00    0.000000D+00    0.474673D+00
   0   375    0.000000D+00    0.000000D+00    0.000000D+00    0.474673D+00
   0   376    0.000000D+00    0.000000D+00    0.000000D+00    0.474673D+00
   0   377    0.000000D+00    0.000000D+00    0.000000D+00    0.474673D+00
   0   378    0.000000D+00    0.000000D+00    0.000000D+00    0.474673D+00
   0   379    0.000000D+00    0.000000D+00    0.000000D+00    0.474673D+00
   0   380    0.000000D+00    0.000000D+00    0.000000D+00    0.474673D+00
   0   381    0.000000D+00    0.000000D+00    0.000000D+00    0.474673D+00
   0   382    0.000000D+00    0.000000D+00    0.000000D+00    0.474673D+00
   0   383    0.000000D+00    0.000000D+00    0.000000D+00    0.474673D+00
   0   384    0.000000D+00    0.000000D+00    0.000000D+00    0.474673D+00
   0   385    0.000000D+00    0.000000D+00    0.000000D+00    0.474673D+00
   0   386    0.000000D+00    0.000000D+00    0.000000D+00    0.474673D+00
   0   387    0.000000D+00    0.000000D+00    0.000000D+00    0.474673D+00
   0   388    0.000000D+00    0.000000D+00    0.000000D+00    0.474673D+00
   0   389    0.000000D+00    0.000000D+00    0.000000D+00    0.474673D+00
   0   390    0.000000D+00    0.000000D+00    0.000000D+00    0.474673D+00
   0   391    0.000000D+00    0.000000D+00    0.000000D+00    0.474673D+00
   0   392    0.000000D+00    0.000000D+00    0.000000D+00    0.474673D+00
   0   393    0.000000D+00    0.000000D+00    0.000000D+00    0.474673D+00
   0   394    0.000000D+00    0.000000D+00    0.000000D+00    0.474673D+00
   0   395    0.000000D+00    0.000000D+00    0.000000D+00    0.474673D+00
   0   396    0.000000D+00    0.000000D+00    0.000000D+00    0.474673D+00
   0   397    0.000000D+00    0.000000D+00    0.000000D+00    0.474673D+00