variables =  "IG"  "JG"  "PHI"  "Temp."  "Latent_heat"  "mm"
ZONE  I=  401  J=  101
   0     0    0.100000D+01    0.779466D+00    0.000000D+00    0.226641D+00
   0     1    0.100000D+01    0.779466D+00    0.000000D+00    0.226641D+00
   0     2    0.100000D+01    0.780107D+00    0.000000D+00    0.225402D+00
   0     3    0.100000D+01    0.781383D+00    0.000000D+00    0.222916D+00
   0     4    0.100000D+01    0.783278D+00    0.000000D+00    0.219165D+00
   0     5    0.100000D+01    0.785769D+00    0.401509D-10    0.214129D+00
   0     6    0.100000D+01    0.788825D+00   -0.803018D-10    0.207781D+00
   0     7    0.100000D+01    0.792409D+00   -0.495194D-09    0.200098D+00
   0     8    0.100000D+01    0.796475D+00    0.187371D-09    0.191062D+00
   0     9    0.100000D+01    0.800970D+00   -0.417569D-08    0.180669D+00
   0    10    0.100000D+01    0.805835D+00    0.146685D-07    0.168942D+00
   0    11    0.100000D+01    0.811002D+00    0.278915D-07    0.155938D+00
   0    12    0.100000D+01    0.816397D+00    0.210578D-06    0.141765D+00
   0    13    0.100000D+01    0.821935D+00   -0.674240D-06    0.126592D+00
   0    14    0.100000D+01    0.827529D+00   -0.878408D-06    0.110662D+00
   0    15    0.100000D+01    0.833080D+00    0.193391D-05    0.942897D-01
   0    16    0.100000D+01    0.838486D+00    0.900833D-05    0.778622D-01
   0    17    0.100000D+01    0.843639D+00    0.319766D-04    0.618165D-01
   0    18    0.100000D+01    0.848433D+00   -0.218050D-04    0.466121D-01
   0    19    0.999999D+00    0.852765D+00    0.406957D-03    0.326907D-01
   0    20    0.999998D+00    0.856549D+00    0.399502D-03    0.204322D-01
   0    21    0.999996D+00    0.859721D+00    0.200037D-02    0.101095D-01
   0    22    0.999993D+00    0.862254D+00   -0.138349D-02    0.185271D-02
   0    23    0.999988D+00    0.864164D+00   -0.488296D-02   -0.437884D-02
   0    24    0.999984D+00    0.865517D+00    0.611427D-02   -0.878931D-02
   0    25    0.999980D+00    0.866419D+00    0.880035D-02   -0.117290D-01
   0    26    0.999979D+00    0.867001D+00    0.245415D-03   -0.136238D-01
   0    27    0.999978D+00    0.867393D+00    0.835803D-02   -0.148997D-01
   0    28    0.999979D+00    0.867703D+00    0.466315D-03   -0.159108D-01
   0    29    0.999980D+00    0.868007D+00   -0.913740D-02   -0.168983D-01
   0    30    0.999981D+00    0.868339D+00   -0.134233D-01   -0.179817D-01
   0    31    0.999982D+00    0.868711D+00   -0.453526D-02   -0.191895D-01
   0    32    0.999982D+00    0.869113D+00    0.968142D-02   -0.204969D-01
   0    33    0.999982D+00    0.869534D+00    0.919403D-02   -0.218631D-01
   0    34    0.999983D+00    0.869965D+00    0.726084D-02   -0.232630D-01
   0    35    0.999985D+00    0.870412D+00    0.167048D-03   -0.247146D-01
   0    36    0.999987D+00    0.870894D+00    0.994824D-02   -0.262772D-01
   0    37    0.999988D+00    0.871439D+00   -0.298446D-02   -0.280446D-01
   0    38    0.999989D+00    0.872087D+00   -0.510976D-03   -0.301390D-01
   0    39    0.999988D+00    0.872876D+00    0.168397D-03   -0.326890D-01
   0    40    0.999986D+00    0.873850D+00    0.379587D-02   -0.358319D-01
   0    41    0.999981D+00    0.875053D+00    0.908480D-02   -0.397023D-01
   0    42    0.999972D+00    0.876533D+00    0.249615D-02   -0.444503D-01
   0    43    0.999959D+00    0.878341D+00   -0.121066D-01   -0.502260D-01
   0    44    0.999939D+00    0.880539D+00   -0.349845D-01   -0.571983D-01
   0    45    0.999909D+00    0.883187D+00    0.418129D-01   -0.655375D-01
   0    46    0.999866D+00    0.886377D+00    0.299123D-01   -0.754593D-01
   0    47    0.999815D+00    0.890226D+00    0.574593D-01   -0.872426D-01
   0    48    0.999759D+00    0.894864D+00   -0.230324D-01   -0.101138D+00
   0    49    0.999711D+00    0.900420D+00    0.103506D+00   -0.117310D+00
   0    50    0.999674D+00    0.907027D+00   -0.168993D+00   -0.135763D+00
   0    51    0.999664D+00    0.914811D+00    0.698950D-01   -0.156386D+00
   0    52    0.999678D+00    0.923819D+00    0.166437D+00   -0.178648D+00
   0    53    0.999721D+00    0.934060D+00    0.281370D-01   -0.201899D+00
   0    54    0.999776D+00    0.945458D+00   -0.554497D-01   -0.225256D+00
   0    55    0.999827D+00    0.957842D+00    0.283557D-01   -0.247841D+00
   0    56    0.999876D+00    0.971008D+00    0.460360D-01   -0.268987D+00
   0    57    0.999915D+00    0.984735D+00   -0.148933D-01   -0.288267D+00
   0    58    0.999942D+00    0.998777D+00    0.143162D-02   -0.305484D+00
   0    59    0.999961D+00    0.101291D+01    0.256681D-01   -0.320634D+00
   0    60    0.999974D+00    0.102694D+01   -0.681279D-02   -0.333835D+00
   0    61    0.999984D+00    0.104069D+01   -0.359731D-02   -0.345270D+00
   0    62    0.999989D+00    0.105402D+01    0.550851D-02   -0.355147D+00
   0    63    0.999993D+00    0.106683D+01   -0.352965D-02   -0.363668D+00
   0    64    0.999996D+00    0.107903D+01    0.761381D-04   -0.371023D+00
   0    65    0.999997D+00    0.109058D+01    0.922797D-03   -0.377377D+00
   0    66    0.999998D+00    0.110143D+01   -0.906092D-03   -0.382876D+00
   0    67    0.999999D+00    0.111157D+01   -0.404809D-05   -0.387642D+00
   0    68    0.999999D+00    0.112099D+01   -0.248239D-03   -0.391781D+00
   0    69    0.100000D+01    0.112969D+01   -0.265157D-03   -0.395380D+00
   0    70    0.100000D+01    0.113771D+01    0.111647D-03   -0.398514D+00
   0    71    0.100000D+01    0.114504D+01   -0.438410D-04   -0.401246D+00
   0    72    0.100000D+01    0.115173D+01    0.399385D-04   -0.403629D+00
   0    73    0.100000D+01    0.115780D+01    0.321225D-04   -0.405708D+00
   0    74    0.100000D+01    0.116329D+01   -0.804249D-06   -0.407523D+00
   0    75    0.100000D+01    0.116824D+01   -0.298926D-05   -0.409107D+00
   0    76    0.100000D+01    0.117267D+01   -0.578759D-05   -0.410488D+00
   0    77    0.100000D+01    0.117662D+01   -0.369310D-05   -0.411691D+00
   0    78    0.100000D+01    0.118014D+01   -0.252239D-05   -0.412739D+00
   0    79    0.100000D+01    0.118326D+01   -0.950117D-06   -0.413649D+00
   0    80    0.100000D+01    0.118601D+01    0.944723D-06   -0.414440D+00
   0    81    0.100000D+01    0.118843D+01    0.121430D-06   -0.415124D+00
   0    82    0.100000D+01    0.119055D+01   -0.333386D-06   -0.415716D+00
   0    83    0.100000D+01    0.119240D+01   -0.959071D-07   -0.416227D+00
   0    84    0.100000D+01    0.119401D+01    0.126034D-06   -0.416666D+00
   0    85    0.100000D+01    0.119539D+01   -0.633982D-07   -0.417043D+00
   0    86    0.100000D+01    0.119659D+01    0.884658D-08   -0.417366D+00
   0    87    0.100000D+01    0.119762D+01   -0.174121D-07   -0.417641D+00
   0    88    0.100000D+01    0.119850D+01   -0.158596D-07   -0.417875D+00
   0    89    0.100000D+01    0.119925D+01    0.796326D-08   -0.418074D+00
   0    90    0.100000D+01    0.119988D+01    0.438983D-08   -0.418242D+00
   0    91    0.100000D+01    0.120042D+01   -0.120453D-09   -0.418383D+00
   0    92    0.100000D+01    0.120087D+01   -0.235552D-08   -0.418502D+00
   0    93    0.100000D+01    0.120125D+01    0.803018D-10   -0.418601D+00
   0    94    0.100000D+01    0.120157D+01   -0.669181D-10   -0.418684D+00
   0    95    0.100000D+01    0.120183D+01   -0.669181D-09   -0.418752D+00
   0    96    0.100000D+01    0.120204D+01   -0.669181D-10   -0.418808D+00
   0    97    0.100000D+01    0.120222D+01   -0.535345D-10   -0.418854D+00
   0    98    0.100000D+01    0.120236D+01    0.803018D-10   -0.418892D+00
   0    99    0.100000D+01    0.120248D+01    0.000000D+00   -0.418922D+00
   0   100    0.100000D+01    0.120257D+01    0.535345D-10   -0.418946D+00
   0   101    0.100000D+01    0.120265D+01   -0.401509D-10   -0.418965D+00
   0   102    0.100000D+01    0.120270D+01   -0.133836D-10   -0.418980D+00
   0   103    0.100000D+01    0.120275D+01    0.133836D-10   -0.418991D+00
   0   104    0.100000D+01    0.120278D+01    0.000000D+00   -0.419000D+00
   0   105    0.100000D+01    0.120280D+01    0.000000D+00   -0.419006D+00
   0   106    0.100000D+01    0.120282D+01    0.000000D+00   -0.419010D+00
   0   107    0.100000D+01    0.120283D+01    0.000000D+00   -0.419012D+00
   0   108    0.100000D+01    0.120283D+01    0.000000D+00   -0.419014D+00
   0   109    0.100000D+01    0.120283D+01    0.000000D+00   -0.419014D+00
   0   110    0.100000D+01    0.120283D+01    0.000000D+00   -0.419013D+00
   0   111    0.100000D+01    0.120283D+01    0.000000D+00   -0.419012D+00
   0   112    0.100000D+01    0.120282D+01    0.000000D+00   -0.419010D+00
   0   113    0.100000D+01    0.120281D+01    0.000000D+00   -0.419007D+00
   0   114    0.100000D+01    0.120280D+01    0.000000D+00   -0.419004D+00
   0   115    0.100000D+01    0.120279D+01    0.000000D+00   -0.419001D+00
   0   116    0.100000D+01    0.120277D+01    0.000000D+00   -0.418998D+00
   0   117    0.100000D+01    0.120276D+01    0.000000D+00   -0.418995D+00
   0   118    0.100000D+01    0.120275D+01    0.000000D+00   -0.418992D+00
   0   119    0.100000D+01    0.120274D+01    0.000000D+00   -0.418988D+00
   0   120    0.100000D+01    0.120272D+01    0.000000D+00   -0.418985D+00
   0   121    0.100000D+01    0.120271D+01    0.000000D+00   -0.418981D+00
   0   122    0.100000D+01    0.120270D+01    0.000000D+00   -0.418978D+00
   0   123    0.100000D+01    0.120268D+01    0.000000D+00   -0.418974D+00
   0   124    0.100000D+01    0.120267D+01    0.000000D+00   -0.418970D+00
   0   125    0.100000D+01    0.120265D+01    0.000000D+00   -0.418967D+00
   0   126    0.100000D+01    0.120264D+01    0.000000D+00   -0.418963D+00
   0   127    0.100000D+01    0.120263D+01    0.000000D+00   -0.418960D+00
   0   128    0.100000D+01    0.120261D+01    0.000000D+00   -0.418956D+00
   0   129    0.100000D+01    0.120260D+01    0.000000D+00   -0.418952D+00
   0   130    0.100000D+01    0.120258D+01    0.000000D+00   -0.418948D+00
   0   131    0.100000D+01    0.120257D+01    0.000000D+00   -0.418944D+00
   0   132    0.100000D+01    0.120255D+01    0.000000D+00   -0.418941D+00
   0   133    0.100000D+01    0.120254D+01    0.000000D+00   -0.418937D+00
   0   134    0.100000D+01    0.120252D+01    0.000000D+00   -0.418933D+00
   0   135    0.100000D+01    0.120251D+01    0.000000D+00   -0.418929D+00
   0   136    0.100000D+01    0.120249D+01    0.000000D+00   -0.418924D+00
   0   137    0.100000D+01    0.120248D+01    0.000000D+00   -0.418920D+00
   0   138    0.100000D+01    0.120246D+01    0.000000D+00   -0.418916D+00
   0   139    0.100000D+01    0.120244D+01    0.000000D+00   -0.418912D+00
   0   140    0.100000D+01    0.120243D+01    0.000000D+00   -0.418908D+00
   0   141    0.100000D+01    0.120241D+01    0.000000D+00   -0.418904D+00
   0   142    0.100000D+01    0.120240D+01    0.000000D+00   -0.418900D+00
   0   143    0.100000D+01    0.120238D+01    0.000000D+00   -0.418896D+00
   0   144    0.100000D+01    0.120237D+01    0.000000D+00   -0.418892D+00
   0   145    0.100000D+01    0.120235D+01    0.000000D+00   -0.418888D+00
   0   146    0.100000D+01    0.120234D+01    0.000000D+00   -0.418884D+00
   0   147    0.100000D+01    0.120232D+01    0.000000D+00   -0.418880D+00
   0   148    0.100000D+01    0.120231D+01    0.000000D+00   -0.418877D+00
   0   149    0.100000D+01    0.120229D+01    0.000000D+00   -0.418873D+00
   0   150    0.100000D+01    0.120228D+01    0.000000D+00   -0.418870D+00
   0   151    0.100000D+01    0.120227D+01    0.000000D+00   -0.418866D+00
   0   152    0.100000D+01    0.120225D+01    0.000000D+00   -0.418863D+00
   0   153    0.100000D+01    0.120224D+01    0.000000D+00   -0.418859D+00
   0   154    0.100000D+01    0.120223D+01    0.000000D+00   -0.418856D+00
   0   155    0.100000D+01    0.120221D+01    0.000000D+00   -0.418852D+00
   0   156    0.100000D+01    0.120220D+01    0.000000D+00   -0.418849D+00
   0   157    0.100000D+01    0.120219D+01    0.000000D+00   -0.418845D+00
   0   158    0.100000D+01    0.120217D+01    0.000000D+00   -0.418841D+00
   0   159    0.100000D+01    0.120216D+01    0.000000D+00   -0.418838D+00
   0   160    0.100000D+01    0.120214D+01    0.000000D+00   -0.418834D+00
   0   161    0.100000D+01    0.120213D+01    0.000000D+00   -0.418830D+00
   0   162    0.100000D+01    0.120211D+01    0.000000D+00   -0.418826D+00
   0   163    0.100000D+01    0.120210D+01    0.000000D+00   -0.418822D+00
   0   164    0.100000D+01    0.120208D+01    0.000000D+00   -0.418818D+00
   0   165    0.100000D+01    0.120207D+01    0.000000D+00   -0.418814D+00
   0   166    0.100000D+01    0.120205D+01    0.000000D+00   -0.418810D+00
   0   167    0.100000D+01    0.120203D+01    0.000000D+00   -0.418805D+00
   0   168    0.100000D+01    0.120202D+01    0.000000D+00   -0.418801D+00
   0   169    0.100000D+01    0.120200D+01    0.000000D+00   -0.418796D+00
   0   170    0.100000D+01    0.120198D+01    0.000000D+00   -0.418791D+00
   0   171    0.100000D+01    0.120196D+01    0.000000D+00   -0.418786D+00
   0   172    0.100000D+01    0.120194D+01    0.000000D+00   -0.418782D+00
   0   173    0.100000D+01    0.120192D+01    0.000000D+00   -0.418777D+00
   0   174    0.100000D+01    0.120190D+01    0.000000D+00   -0.418771D+00
   0   175    0.100000D+01    0.120188D+01    0.000000D+00   -0.418766D+00
   0   176    0.100000D+01    0.120186D+01    0.000000D+00   -0.418761D+00
   0   177    0.100000D+01    0.120184D+01    0.000000D+00   -0.418756D+00
   0   178    0.100000D+01    0.120182D+01    0.000000D+00   -0.418750D+00
   0   179    0.100000D+01    0.120180D+01    0.000000D+00   -0.418745D+00
   0   180    0.100000D+01    0.120178D+01    0.000000D+00   -0.418740D+00
   0   181    0.100000D+01    0.120176D+01    0.000000D+00   -0.418734D+00
   0   182    0.100000D+01    0.120174D+01    0.000000D+00   -0.418729D+00
   0   183    0.100000D+01    0.120172D+01    0.000000D+00   -0.418724D+00
   0   184    0.100000D+01    0.120170D+01    0.000000D+00   -0.418718D+00
   0   185    0.100000D+01    0.120168D+01    0.000000D+00   -0.418713D+00
   0   186    0.100000D+01    0.120166D+01    0.000000D+00   -0.418708D+00
   0   187    0.100000D+01    0.120164D+01    0.000000D+00   -0.418703D+00
   0   188    0.100000D+01    0.120163D+01    0.000000D+00   -0.418699D+00
   0   189    0.100000D+01    0.120161D+01    0.133836D-10   -0.418694D+00
   0   190    0.100000D+01    0.120159D+01    0.133836D-10   -0.418690D+00
   0   191    0.100000D+01    0.120158D+01    0.000000D+00   -0.418686D+00
   0   192    0.100000D+01    0.120156D+01    0.267673D-10   -0.418683D+00
   0   193    0.100000D+01    0.120155D+01    0.133836D-10   -0.418679D+00
   0   194    0.100000D+01    0.120154D+01    0.133836D-10   -0.418676D+00
   0   195    0.100000D+01    0.120153D+01    0.401509D-10   -0.418673D+00
   0   196    0.100000D+01    0.120152D+01    0.267673D-10   -0.418670D+00
   0   197    0.100000D+01    0.120151D+01    0.535345D-10   -0.418668D+00
   0   198    0.100000D+01    0.120150D+01    0.267673D-10   -0.418665D+00
   0   199    0.100000D+01    0.120149D+01    0.535345D-10   -0.418662D+00
   0   200    0.100000D+01    0.120148D+01    0.147220D-09   -0.418660D+00
   0   201    0.100000D+01    0.120147D+01    0.147220D-09   -0.418657D+00
   0   202    0.100000D+01    0.120145D+01    0.160604D-09   -0.418654D+00
   0   203    0.100000D+01    0.120144D+01    0.147220D-09   -0.418651D+00
   0   204    0.100000D+01    0.120143D+01    0.321207D-09   -0.418647D+00
   0   205    0.100000D+01    0.120141D+01    0.173987D-09   -0.418644D+00
   0   206    0.100000D+01    0.120140D+01    0.428276D-09   -0.418640D+00
   0   207    0.100000D+01    0.120138D+01    0.267673D-09   -0.418635D+00
   0   208    0.100000D+01    0.120136D+01    0.441660D-09   -0.418630D+00
   0   209    0.100000D+01    0.120134D+01    0.936854D-10   -0.418625D+00
   0   210    0.100000D+01    0.120132D+01    0.173987D-09   -0.418619D+00
   0   211    0.100000D+01    0.120130D+01    0.121791D-08   -0.418612D+00
   0   212    0.100000D+01    0.120127D+01    0.294440D-09   -0.418606D+00
   0   213    0.100000D+01    0.120124D+01    0.281056D-09   -0.418598D+00
   0   214    0.100000D+01    0.120121D+01   -0.254289D-09   -0.418591D+00
   0   215    0.100000D+01    0.120118D+01    0.236890D-08   -0.418583D+00
   0   216    0.100000D+01    0.120115D+01    0.254289D-09   -0.418575D+00
   0   217    0.100000D+01    0.120112D+01    0.226183D-08   -0.418566D+00
   0   218    0.100000D+01    0.120109D+01    0.766882D-08   -0.418557D+00
   0   219    0.100000D+01    0.120105D+01    0.985035D-08   -0.418549D+00
   0   220    0.100000D+01    0.120102D+01    0.468427D-09   -0.418540D+00
   0   221    0.100000D+01    0.120099D+01   -0.575496D-09   -0.418531D+00
   0   222    0.100000D+01    0.120095D+01    0.781604D-08   -0.418523D+00
   0   223    0.100000D+01    0.120092D+01    0.587541D-08   -0.418514D+00
   0   224    0.100000D+01    0.120089D+01    0.150298D-07   -0.418506D+00
   0   225    0.100000D+01    0.120086D+01    0.151235D-07   -0.418498D+00
   0   226    0.100000D+01    0.120083D+01    0.436842D-07   -0.418491D+00
   0   227    0.100000D+01    0.120080D+01    0.573890D-07   -0.418484D+00
   0   228    0.100000D+01    0.120078D+01    0.522229D-07   -0.418477D+00
   0   229    0.100000D+01    0.120076D+01    0.524772D-07   -0.418471D+00
   0   230    0.100000D+01    0.120073D+01    0.857087D-07   -0.418465D+00
   0   231    0.100000D+01    0.120071D+01    0.128510D-06   -0.418459D+00
   0   232    0.100000D+01    0.120069D+01    0.161835D-06   -0.418454D+00
   0   233    0.100000D+01    0.120067D+01    0.125645D-06   -0.418449D+00
   0   234    0.100000D+01    0.120065D+01    0.433496D-07   -0.418444D+00
   0   235    0.100000D+01    0.120064D+01    0.416699D-06   -0.418440D+00
   0   236    0.100000D+01    0.120062D+01    0.510452D-07   -0.418435D+00
   0   237    0.100000D+01    0.120060D+01    0.411506D-06   -0.418431D+00
   0   238    0.100000D+01    0.120059D+01    0.381607D-06   -0.418427D+00
   0   239    0.100000D+01    0.120058D+01    0.827764D-06   -0.418424D+00
   0   240    0.100000D+01    0.120056D+01    0.102879D-05   -0.418421D+00
   0   241    0.100000D+01    0.120055D+01    0.163454D-06   -0.418418D+00
   0   242    0.100000D+01    0.120055D+01    0.222535D-05   -0.418416D+00
   0   243    0.100000D+01    0.120054D+01    0.241520D-05   -0.418414D+00
   0   244    0.100000D+01    0.120054D+01   -0.353595D-06   -0.418414D+00
   0   245    0.100000D+01    0.120054D+01    0.145637D-05   -0.418413D+00
   0   246    0.100000D+01    0.120054D+01    0.154956D-05   -0.418414D+00
   0   247    0.100000D+01    0.120054D+01    0.106204D-05   -0.418415D+00
   0   248    0.100000D+01    0.120055D+01    0.126505D-05   -0.418417D+00
   0   249    0.100000D+01    0.120056D+01    0.112008D-04   -0.418419D+00
   0   250    0.100000D+01    0.120056D+01    0.678424D-05   -0.418421D+00
   0   251    0.100000D+01    0.120057D+01    0.953606D-05   -0.418423D+00
   0   252    0.100000D+01    0.120058D+01    0.682821D-05   -0.418425D+00
   0   253    0.100000D+01    0.120059D+01    0.160674D-04   -0.418427D+00
   0   254    0.100000D+01    0.120059D+01    0.539960D-05   -0.418428D+00
   0   255    0.100000D+01    0.120060D+01    0.106277D-04   -0.418429D+00
   0   256    0.100000D+01    0.120060D+01    0.249099D-04   -0.418429D+00
   0   257    0.100000D+01    0.120060D+01    0.670956D-04   -0.418429D+00
   0   258    0.100000D+01    0.120060D+01    0.957875D-04   -0.418429D+00
   0   259    0.100000D+01    0.120059D+01   -0.857891D-05   -0.418428D+00
   0   260    0.100000D+01    0.120059D+01    0.150939D-04   -0.418428D+00
   0   261    0.100000D+01    0.120059D+01    0.539074D-04   -0.418427D+00
   0   262    0.100000D+01    0.120058D+01    0.206127D-03   -0.418426D+00
   0   263    0.100000D+01    0.120058D+01    0.143068D-03   -0.418424D+00
   0   264    0.100000D+01    0.120057D+01    0.104588D-03   -0.418423D+00
   0   265    0.100000D+01    0.120056D+01    0.157584D-03   -0.418421D+00
   0   266    0.999999D+00    0.120056D+01    0.121425D-03   -0.418418D+00
   0   267    0.999999D+00    0.120055D+01    0.701185D-03   -0.418416D+00
   0   268    0.999999D+00    0.120053D+01    0.162374D-03   -0.418412D+00
   0   269    0.999999D+00    0.120052D+01    0.257474D-03   -0.418409D+00
   0   270    0.999998D+00    0.120050D+01   -0.945980D-04   -0.418404D+00
   0   271    0.999998D+00    0.120048D+01   -0.232134D-04   -0.418399D+00
   0   272    0.999998D+00    0.120046D+01    0.240182D-03   -0.418393D+00
   0   273    0.999997D+00    0.120044D+01    0.230933D-02   -0.418387D+00
   0   274    0.999996D+00    0.120041D+01    0.709889D-03   -0.418379D+00
   0   275    0.999995D+00    0.120037D+01    0.128960D-02   -0.418371D+00
   0   276    0.999994D+00    0.120034D+01    0.729460D-03   -0.418361D+00
   0   277    0.999992D+00    0.120030D+01    0.812432D-02   -0.418350D+00
   0   278    0.999990D+00    0.120025D+01    0.164003D-02   -0.418338D+00
   0   279    0.999987D+00    0.120020D+01    0.103515D-01   -0.418325D+00
   0   280    0.999984D+00    0.120014D+01    0.126450D-01   -0.418309D+00
   0   281    0.999980D+00    0.120008D+01    0.734720D-02   -0.418292D+00
   0   282    0.999975D+00    0.120001D+01    0.226105D-01   -0.418273D+00
   0   283    0.999969D+00    0.119992D+01    0.227723D-01   -0.418251D+00
   0   284    0.999961D+00    0.119983D+01    0.324872D-01   -0.418226D+00
   0   285    0.999951D+00    0.119972D+01    0.158395D-01   -0.418197D+00
   0   286    0.999938D+00    0.119959D+01    0.127501D-01   -0.418164D+00
   0   287    0.999921D+00    0.119945D+01    0.308417D-01   -0.418125D+00
   0   288    0.999900D+00    0.119929D+01    0.230652D-01   -0.418083D+00
   0   289    0.999873D+00    0.119910D+01    0.145352D+00   -0.418035D+00
   0   290    0.999843D+00    0.119890D+01    0.338664D-01   -0.417980D+00
   0   291    0.999804D+00    0.119868D+01    0.120242D-01   -0.417921D+00
   0   292    0.999756D+00    0.119843D+01    0.264390D+00   -0.417856D+00
   0   293    0.999691D+00    0.119815D+01    0.134418D+00   -0.417782D+00
   0   294    0.999612D+00    0.119784D+01    0.291939D+00   -0.417697D+00
   0   295    0.999513D+00    0.119748D+01    0.480500D+00   -0.417601D+00
   0   296    0.999387D+00    0.119706D+01    0.616616D+00   -0.417488D+00
   0   297    0.999222D+00    0.119658D+01    0.776517D+00   -0.417360D+00
   0   298    0.999022D+00    0.119606D+01    0.535790D+00   -0.417220D+00
   0   299    0.998773D+00    0.119545D+01    0.536185D+00   -0.417055D+00
   0   300    0.998443D+00    0.119479D+01   -0.555787D-01   -0.416875D+00
   0   301    0.998061D+00    0.119405D+01    0.112951D+01   -0.416672D+00
   0   302    0.997571D+00    0.119318D+01    0.359511D+00   -0.416441D+00
   0   303    0.997010D+00    0.119220D+01    0.989085D+00   -0.416159D+00
   0   304    0.996293D+00    0.119108D+01   -0.567794D+00   -0.415863D+00
   0   305    0.995311D+00    0.118961D+01    0.425088D+01   -0.415442D+00
   0   306    0.994095D+00    0.118793D+01    0.571843D+01   -0.414973D+00
   0   307    0.992571D+00    0.118587D+01    0.783044D+01   -0.414391D+00
   0   308    0.990810D+00    0.118330D+01   -0.118402D+00   -0.413638D+00
   0   309    0.988725D+00    0.118030D+01    0.103835D+02   -0.412790D+00
   0   310    0.986172D+00    0.117667D+01    0.121833D+02   -0.411706D+00
   0   311    0.982873D+00    0.117258D+01    0.394621D+01   -0.410471D+00
   0   312    0.978634D+00    0.116799D+01    0.760296D+01   -0.408979D+00
   0   313    0.974462D+00    0.116228D+01    0.164824D+02   -0.407165D+00
   0   314    0.969624D+00    0.115611D+01    0.278886D+01   -0.405152D+00
   0   315    0.963889D+00    0.115005D+01    0.270681D+01   -0.402940D+00
   0   316    0.957564D+00    0.114222D+01    0.235386D+02   -0.400273D+00
   0   317    0.950028D+00    0.113340D+01    0.247285D+02   -0.396873D+00
   0   318    0.942214D+00    0.112451D+01    0.369694D+02   -0.393052D+00
   0   319    0.933692D+00    0.111519D+01   -0.135958D+02   -0.389068D+00
   0   320    0.923511D+00    0.110426D+01    0.509086D+02   -0.384319D+00
   0   321    0.917513D+00    0.109510D+01    0.394282D+02   -0.379820D+00
   0   322    0.908051D+00    0.108379D+01    0.590967D+02   -0.373576D+00
   0   323    0.900568D+00    0.107522D+01   -0.789295D+01   -0.368606D+00
   0   324    0.891397D+00    0.106408D+01    0.646548D+02   -0.361860D+00
   0   325    0.885010D+00    0.105560D+01    0.445741D+02   -0.355804D+00
   0   326    0.875214D+00    0.104801D+01   -0.459612D+01   -0.350354D+00
   0   327    0.868775D+00    0.103596D+01    0.367472D+02   -0.341673D+00
   0   328    0.863616D+00    0.102947D+01    0.359535D+02   -0.335643D+00
   0   329    0.854751D+00    0.101984D+01    0.197417D+02   -0.327387D+00
   0   330    0.845466D+00    0.101104D+01    0.433916D+02   -0.318207D+00
   0   331    0.835784D+00    0.100094D+01   -0.183047D+02   -0.307016D+00
   0   332    0.823853D+00    0.987742D+00    0.401735D+01   -0.292843D+00
   0   333    0.808349D+00    0.972272D+00    0.873742D+02   -0.270296D+00
   0   334    0.793098D+00    0.948532D+00    0.385589D+02   -0.231691D+00
   0   335    0.764327D+00    0.924712D+00    0.403792D+02   -0.178150D+00
   0   336    0.715846D+00    0.881740D+00    0.145218D+03   -0.545201D-01
   0   337    0.618629D+00    0.802123D+00    0.317441D+03    0.185291D+00
   0   338    0.408234D+00    0.604309D+00    0.707392D+03    0.393562D+00
   0   339    0.185724D+00    0.336623D+00    0.312616D+03    0.451670D+00
   0   340    0.699810D-01    0.150874D+00    0.133405D+03    0.466967D+00
   0   341    0.246936D-01    0.602211D-01    0.671748D+02    0.471936D+00
   0   342    0.855452D-02    0.222514D-01    0.222235D+02    0.473705D+00
   0   343    0.294742D-02    0.796347D-02    0.867596D+01    0.474332D+00
   0   344    0.100887D-02    0.280496D-02    0.229599D+01    0.474553D+00
   0   345    0.340303D-03    0.966170D-03    0.926355D+00    0.474632D+00
   0   346    0.114980D-03    0.331685D-03    0.298527D+00    0.474659D+00
   0   347    0.387191D-04    0.112900D-03    0.945427D-01    0.474668D+00
   0   348    0.130288D-04    0.381537D-04    0.382527D-01    0.474671D+00
   0   349    0.444451D-05    0.130312D-04    0.129277D-01    0.474672D+00
   0   350    0.151157D-05    0.441086D-05    0.443985D-02    0.474672D+00
   0   351    0.512853D-06    0.148796D-05    0.155373D-02    0.474672D+00
   0   352    0.171582D-06    0.509211D-06    0.527484D-03    0.474673D+00
   0   353    0.588582D-07    0.173576D-06    0.121694D-03    0.474673D+00
   0   354    0.198954D-07    0.591051D-07    0.433125D-04    0.474673D+00
   0   355    0.668496D-08    0.199888D-07    0.179466D-04    0.474673D+00
   0   356    0.226308D-08    0.679545D-08    0.487290D-05    0.474673D+00
   0   357    0.780651D-09    0.231239D-08    0.197999D-05    0.474673D+00
   0   358    0.267381D-09    0.785613D-09    0.636990D-06    0.474673D+00
   0   359    0.906999D-10    0.267915D-09    0.243077D-06    0.474673D+00
   0   360    0.306301D-10    0.903368D-10    0.782700D-07    0.474673D+00
   0   361    0.104754D-10    0.306229D-10    0.269871D-07    0.474673D+00
   0   362    0.358324D-11    0.104177D-10    0.764850D-08    0.474673D+00
   0   363    0.118149D-11    0.352243D-11    0.341324D-08    0.474673D+00
   0   364    0.403282D-12    0.119420D-11    0.952358D-09    0.474673D+00
   0   365    0.137254D-12    0.405730D-12    0.355940D-09    0.474673D+00
   0   366    0.465254D-13    0.138268D-12    0.147922D-09    0.474673D+00
   0   367    0.156432D-13    0.466372D-13    0.432314D-10    0.474673D+00
   0   368    0.530416D-14    0.157452D-13    0.153860D-10    0.474673D+00
   0   369    0.180926D-14    0.534227D-14    0.536700D-11    0.474673D+00
   0   370    0.616041D-15    0.181806D-14    0.135110D-11    0.474673D+00
   0   371    0.210198D-15    0.617778D-15    0.618528D-12    0.474673D+00
   0   372    0.712198D-16    0.209314D-15    0.170295D-12    0.474673D+00
   0   373    0.237570D-16    0.713380D-16    0.766981D-13    0.474673D+00
   0   374    0.795957D-17    0.240309D-16    0.241414D-13    0.474673D+00
   0   375    0.271970D-17    0.817126D-17    0.580715D-14    0.474673D+00
   0   376    0.936669D-18    0.277726D-17    0.202554D-14    0.474673D+00
   0   377    0.321762D-18    0.949368D-18    0.911232D-15    0.474673D+00
   0   378    0.110824D-18    0.323657D-18    0.324006D-15    0.474673D+00
   0   379    0.373722D-19    0.110632D-18    0.118414D-15    0.474673D+00
   0   380    0.127841D-19    0.374585D-19    0.272240D-16    0.474673D+00
   0   381    0.431566D-20    0.127333D-19    0.121538D-16    0.474673D+00
   0   382    0.145433D-20    0.432085D-20    0.381709D-17    0.474673D+00
   0   383    0.503192D-21    0.147301D-20    0.146784D-17    0.474673D+00
   0   384    0.169484D-21    0.500712D-21    0.431854D-18    0.474673D+00
   0   385    0.572576D-22    0.169998D-21    0.163738D-18    0.474673D+00
   0   386    0.189326D-22    0.570330D-22    0.614669D-19    0.474673D+00
   0   387    0.645672D-23    0.193297D-22    0.185376D-19    0.474673D+00
   0   388    0.223795D-23    0.654195D-23    0.435750D-20    0.474673D+00
   0   389    0.765684D-24    0.224376D-23    0.153635D-20    0.474673D+00
   0   390    0.260313D-24    0.765401D-24    0.787695D-21    0.474673D+00
   0   391    0.896900D-25    0.260097D-24    0.194781D-21    0.474673D+00
   0   392    0.300698D-25    0.886231D-25    0.752370D-22    0.474673D+00
   0   393    0.101333D-25    0.301756D-25    0.216188D-22    0.474673D+00
   0   394    0.344529D-26    0.102185D-25    0.847725D-23    0.474673D+00
   0   395    0.117734D-26    0.347076D-26    0.290259D-23    0.474673D+00
   0   396    0.401931D-27    0.117067D-26    0.104443D-23    0.474673D+00
   0   397    0.137378D-27    0.399996D-27    0.307045D-24    0.474673D+00