variables =  "IG"  "JG"  "PHI"  "Temp."  "Latent_heat"  "mm"
ZONE  I=  401  J=  101
   0     0    0.100000D+01    0.745730D+00    0.000000D+00    0.281792D+00
   0     1    0.100000D+01    0.745730D+00    0.000000D+00    0.281792D+00
   0     2    0.100000D+01    0.746724D+00    0.000000D+00    0.280417D+00
   0     3    0.100000D+01    0.748699D+00    0.000000D+00    0.277647D+00
   0     4    0.100000D+01    0.751626D+00   -0.267673D-10    0.273439D+00
   0     5    0.100000D+01    0.755467D+00   -0.133836D-10    0.267730D+00
   0     6    0.100000D+01    0.760165D+00    0.267673D-09    0.260442D+00
   0     7    0.100000D+01    0.765655D+00    0.428276D-09    0.251480D+00
   0     8    0.100000D+01    0.771857D+00    0.701302D-08    0.240746D+00
   0     9    0.100000D+01    0.778681D+00   -0.161139D-07    0.228145D+00
   0    10    0.100000D+01    0.786023D+00   -0.358949D-07    0.213607D+00
   0    11    0.100000D+01    0.793771D+00    0.145119D-06    0.197107D+00
   0    12    0.100000D+01    0.801800D+00    0.493869D-06    0.178703D+00
   0    13    0.100000D+01    0.809976D+00    0.300137D-05    0.158563D+00
   0    14    0.100000D+01    0.818156D+00   -0.416192D-05    0.137008D+00
   0    15    0.100000D+01    0.826192D+00   -0.478094D-05    0.114520D+00
   0    16    0.100000D+01    0.833929D+00   -0.172300D-04    0.917346D-01
   0    17    0.100000D+01    0.841219D+00   -0.277561D-04    0.693894D-01
   0    18    0.999999D+00    0.847921D+00    0.360848D-03    0.482401D-01
   0    19    0.999998D+00    0.853918D+00   -0.117784D-02    0.289589D-01
   0    20    0.999995D+00    0.859127D+00   -0.229291D-02    0.120396D-01
   0    21    0.999991D+00    0.863514D+00    0.173709D-02   -0.226649D-02
   0    22    0.999987D+00    0.867107D+00   -0.713400D-02   -0.139753D-01
   0    23    0.999983D+00    0.869988D+00   -0.516904D-02   -0.233441D-01
   0    24    0.999981D+00    0.872292D+00   -0.752700D-02   -0.308076D-01
   0    25    0.999981D+00    0.874176D+00   -0.925731D-02   -0.368874D-01
   0    26    0.999982D+00    0.875792D+00   -0.751490D-02   -0.420825D-01
   0    27    0.999982D+00    0.877263D+00   -0.133470D-02   -0.467907D-01
   0    28    0.999982D+00    0.878669D+00    0.109150D-01   -0.512748D-01
   0    29    0.999980D+00    0.880053D+00    0.459239D-02   -0.556679D-01
   0    30    0.999976D+00    0.881425D+00    0.136593D-01   -0.600069D-01
   0    31    0.999974D+00    0.882782D+00   -0.742846D-02   -0.642723D-01
   0    32    0.999972D+00    0.884113D+00    0.153226D-01   -0.684397D-01
   0    33    0.999972D+00    0.885417D+00    0.170487D-01   -0.724974D-01
   0    34    0.999974D+00    0.886704D+00   -0.143577D-02   -0.764806D-01
   0    35    0.999977D+00    0.887998D+00   -0.677573D-02   -0.804617D-01
   0    36    0.999980D+00    0.889333D+00    0.324683D-03   -0.845438D-01
   0    37    0.999983D+00    0.890750D+00    0.505555D-02   -0.888484D-01
   0    38    0.999985D+00    0.892296D+00   -0.478463D-02   -0.935088D-01
   0    39    0.999984D+00    0.894021D+00   -0.353389D-02   -0.986587D-01
   0    40    0.999980D+00    0.895977D+00    0.110139D-02   -0.104441D+00
   0    41    0.999973D+00    0.898225D+00    0.140928D-01   -0.111002D+00
   0    42    0.999960D+00    0.900835D+00    0.430805D-02   -0.118507D+00
   0    43    0.999939D+00    0.903891D+00    0.437766D-01   -0.127125D+00
   0    44    0.999908D+00    0.907490D+00    0.310626D-01   -0.137040D+00
   0    45    0.999868D+00    0.911755D+00   -0.506281D-02   -0.148452D+00
   0    46    0.999815D+00    0.916818D+00   -0.239425D-01   -0.161509D+00
   0    47    0.999754D+00    0.922835D+00    0.991001D-01   -0.176324D+00
   0    48    0.999697D+00    0.929937D+00   -0.152661D+00   -0.192811D+00
   0    49    0.999659D+00    0.938245D+00    0.765884D-01   -0.210788D+00
   0    50    0.999643D+00    0.947865D+00    0.125556D+00   -0.229877D+00
   0    51    0.999660D+00    0.958787D+00   -0.502117D-01   -0.249465D+00
   0    52    0.999700D+00    0.970912D+00    0.284386D-01   -0.268848D+00
   0    53    0.999747D+00    0.984111D+00    0.144572D+00   -0.287454D+00
   0    54    0.999803D+00    0.998144D+00   -0.723922D-01   -0.304764D+00
   0    55    0.999853D+00    0.101273D+01    0.295871D-01   -0.320457D+00
   0    56    0.999893D+00    0.102758D+01    0.386473D-01   -0.334408D+00
   0    57    0.999923D+00    0.104242D+01   -0.216336D-01   -0.346626D+00
   0    58    0.999946D+00    0.105700D+01   -0.171104D-01   -0.357213D+00
   0    59    0.999963D+00    0.107110D+01    0.552263D-02   -0.366325D+00
   0    60    0.999975D+00    0.108455D+01    0.113993D-01   -0.374132D+00
   0    61    0.999983D+00    0.109724D+01   -0.186955D-02   -0.380806D+00
   0    62    0.999989D+00    0.110907D+01    0.242051D-02   -0.386503D+00
   0    63    0.999993D+00    0.112001D+01    0.398174D-03   -0.391364D+00
   0    64    0.999995D+00    0.113002D+01   -0.117178D-02   -0.395512D+00
   0    65    0.999997D+00    0.113912D+01    0.859859D-03   -0.399052D+00
   0    66    0.999998D+00    0.114733D+01   -0.118082D-02   -0.402073D+00
   0    67    0.999999D+00    0.115469D+01   -0.783401D-03   -0.404652D+00
   0    68    0.999999D+00    0.116124D+01    0.289043D-03   -0.406851D+00
   0    69    0.100000D+01    0.116703D+01    0.130468D-03   -0.408726D+00
   0    70    0.100000D+01    0.117213D+01    0.580939D-04   -0.410322D+00
   0    71    0.100000D+01    0.117659D+01    0.443391D-04   -0.411680D+00
   0    72    0.100000D+01    0.118046D+01   -0.564644D-04   -0.412833D+00
   0    73    0.100000D+01    0.118382D+01    0.148655D-04   -0.413811D+00
   0    74    0.100000D+01    0.118671D+01   -0.114917D-04   -0.414636D+00
   0    75    0.100000D+01    0.118918D+01    0.542516D-05   -0.415333D+00
   0    76    0.100000D+01    0.119128D+01   -0.706626D-05   -0.415918D+00
   0    77    0.100000D+01    0.119306D+01   -0.202023D-05   -0.416408D+00
   0    78    0.100000D+01    0.119456D+01   -0.124318D-05   -0.416817D+00
   0    79    0.100000D+01    0.119582D+01   -0.167471D-05   -0.417157D+00
   0    80    0.100000D+01    0.119686D+01    0.448659D-06   -0.417438D+00
   0    81    0.100000D+01    0.119773D+01   -0.216908D-06   -0.417670D+00
   0    82    0.100000D+01    0.119844D+01   -0.313030D-06   -0.417860D+00
   0    83    0.100000D+01    0.119902D+01    0.498808D-07   -0.418014D+00
   0    84    0.100000D+01    0.119950D+01    0.933642D-07   -0.418140D+00
   0    85    0.100000D+01    0.119988D+01    0.165422D-07   -0.418241D+00
   0    86    0.100000D+01    0.120019D+01    0.468427D-08   -0.418321D+00
   0    87    0.100000D+01    0.120043D+01   -0.150432D-07   -0.418385D+00
   0    88    0.100000D+01    0.120062D+01    0.236756D-07   -0.418435D+00
   0    89    0.100000D+01    0.120077D+01    0.994403D-08   -0.418475D+00
   0    90    0.100000D+01    0.120088D+01   -0.563451D-08   -0.418505D+00
   0    91    0.100000D+01    0.120097D+01    0.299793D-08   -0.418527D+00
   0    92    0.100000D+01    0.120104D+01   -0.147220D-09   -0.418544D+00
   0    93    0.100000D+01    0.120108D+01    0.508578D-09   -0.418557D+00
   0    94    0.100000D+01    0.120111D+01   -0.856552D-09   -0.418565D+00
   0    95    0.100000D+01    0.120114D+01   -0.307823D-09   -0.418570D+00
   0    96    0.100000D+01    0.120115D+01    0.200754D-09   -0.418573D+00
   0    97    0.100000D+01    0.120115D+01   -0.214138D-09   -0.418575D+00
   0    98    0.100000D+01    0.120115D+01    0.147220D-09   -0.418574D+00
   0    99    0.100000D+01    0.120114D+01    0.535345D-10   -0.418572D+00
   0   100    0.100000D+01    0.120113D+01    0.133836D-10   -0.418570D+00
   0   101    0.100000D+01    0.120112D+01    0.267673D-10   -0.418566D+00
   0   102    0.100000D+01    0.120110D+01   -0.133836D-10   -0.418561D+00
   0   103    0.100000D+01    0.120108D+01    0.133836D-10   -0.418556D+00
   0   104    0.100000D+01    0.120106D+01    0.000000D+00   -0.418550D+00
   0   105    0.100000D+01    0.120103D+01    0.000000D+00   -0.418544D+00
   0   106    0.100000D+01    0.120101D+01    0.000000D+00   -0.418537D+00
   0   107    0.100000D+01    0.120098D+01    0.000000D+00   -0.418529D+00
   0   108    0.100000D+01    0.120095D+01    0.000000D+00   -0.418522D+00
   0   109    0.100000D+01    0.120092D+01    0.000000D+00   -0.418513D+00
   0   110    0.100000D+01    0.120089D+01    0.000000D+00   -0.418505D+00
   0   111    0.100000D+01    0.120085D+01    0.000000D+00   -0.418496D+00
   0   112    0.100000D+01    0.120082D+01    0.133836D-10   -0.418487D+00
   0   113    0.100000D+01    0.120079D+01    0.133836D-10   -0.418479D+00
   0   114    0.100000D+01    0.120075D+01    0.133836D-10   -0.418470D+00
   0   115    0.100000D+01    0.120072D+01    0.133836D-10   -0.418461D+00
   0   116    0.100000D+01    0.120069D+01    0.133836D-10   -0.418453D+00
   0   117    0.100000D+01    0.120066D+01    0.133836D-10   -0.418445D+00
   0   118    0.100000D+01    0.120063D+01    0.000000D+00   -0.418437D+00
   0   119    0.100000D+01    0.120060D+01    0.267673D-10   -0.418429D+00
   0   120    0.100000D+01    0.120057D+01    0.401509D-10   -0.418422D+00
   0   121    0.100000D+01    0.120054D+01    0.803018D-10   -0.418414D+00
   0   122    0.100000D+01    0.120051D+01    0.803018D-10   -0.418407D+00
   0   123    0.100000D+01    0.120049D+01    0.120453D-09   -0.418401D+00
   0   124    0.100000D+01    0.120046D+01    0.120453D-09   -0.418394D+00
   0   125    0.100000D+01    0.120044D+01    0.187371D-09   -0.418387D+00
   0   126    0.100000D+01    0.120041D+01    0.214138D-09   -0.418380D+00
   0   127    0.100000D+01    0.120038D+01    0.281056D-09   -0.418373D+00
   0   128    0.100000D+01    0.120036D+01    0.173987D-09   -0.418366D+00
   0   129    0.100000D+01    0.120033D+01    0.294440D-09   -0.418358D+00
   0   130    0.100000D+01    0.120030D+01    0.347974D-09   -0.418351D+00
   0   131    0.100000D+01    0.120027D+01    0.334591D-09   -0.418342D+00
   0   132    0.100000D+01    0.120024D+01    0.936854D-09   -0.418334D+00
   0   133    0.100000D+01    0.120020D+01    0.936854D-10   -0.418325D+00
   0   134    0.100000D+01    0.120017D+01    0.143205D-08   -0.418317D+00
   0   135    0.100000D+01    0.120014D+01    0.172649D-08   -0.418308D+00
   0   136    0.100000D+01    0.120010D+01    0.180679D-08   -0.418299D+00
   0   137    0.100000D+01    0.120007D+01    0.279718D-08   -0.418290D+00
   0   138    0.100000D+01    0.120004D+01    0.226183D-08   -0.418282D+00
   0   139    0.100000D+01    0.120001D+01    0.368050D-08   -0.418274D+00
   0   140    0.100000D+01    0.119998D+01    0.473780D-08   -0.418266D+00
   0   141    0.100000D+01    0.119995D+01    0.295778D-08   -0.418259D+00
   0   142    0.100000D+01    0.119993D+01    0.923470D-09   -0.418253D+00
   0   143    0.100000D+01    0.119991D+01    0.108943D-07   -0.418247D+00
   0   144    0.100000D+01    0.119989D+01    0.315854D-08   -0.418243D+00
   0   145    0.100000D+01    0.119987D+01    0.232206D-07   -0.418238D+00
   0   146    0.100000D+01    0.119986D+01   -0.682565D-09   -0.418235D+00
   0   147    0.100000D+01    0.119985D+01    0.147621D-07   -0.418232D+00
   0   148    0.100000D+01    0.119984D+01    0.415695D-07   -0.418229D+00
   0   149    0.100000D+01    0.119983D+01    0.641076D-08   -0.418227D+00
   0   150    0.100000D+01    0.119982D+01    0.326427D-07   -0.418225D+00
   0   151    0.100000D+01    0.119982D+01    0.736769D-07   -0.418223D+00
   0   152    0.100000D+01    0.119981D+01    0.264059D-07   -0.418222D+00
   0   153    0.100000D+01    0.119980D+01    0.590753D-07   -0.418220D+00
   0   154    0.100000D+01    0.119980D+01    0.564789D-07   -0.418218D+00
   0   155    0.100000D+01    0.119979D+01    0.182231D-06   -0.418216D+00
   0   156    0.100000D+01    0.119978D+01    0.174054D-06   -0.418214D+00
   0   157    0.100000D+01    0.119977D+01    0.293249D-06   -0.418211D+00
   0   158    0.100000D+01    0.119976D+01    0.337294D-06   -0.418208D+00
   0   159    0.100000D+01    0.119974D+01    0.496064D-06   -0.418205D+00
   0   160    0.100000D+01    0.119973D+01    0.523046D-06   -0.418201D+00
   0   161    0.100000D+01    0.119971D+01    0.636646D-06   -0.418196D+00
   0   162    0.100000D+01    0.119969D+01    0.122492D-05   -0.418190D+00
   0   163    0.100000D+01    0.119967D+01    0.375906D-06   -0.418185D+00
   0   164    0.100000D+01    0.119964D+01    0.543897D-06   -0.418178D+00
   0   165    0.100000D+01    0.119962D+01    0.779436D-06   -0.418171D+00
   0   166    0.100000D+01    0.119959D+01    0.119382D-05   -0.418164D+00
   0   167    0.100000D+01    0.119956D+01    0.290356D-05   -0.418157D+00
   0   168    0.100000D+01    0.119954D+01    0.259696D-05   -0.418149D+00
   0   169    0.100000D+01    0.119951D+01    0.264625D-05   -0.418143D+00
   0   170    0.100000D+01    0.119949D+01    0.572957D-05   -0.418136D+00
   0   171    0.100000D+01    0.119946D+01    0.110911D-05   -0.418131D+00
   0   172    0.100000D+01    0.119945D+01    0.504161D-06   -0.418126D+00
   0   173    0.100000D+01    0.119943D+01    0.623087D-05   -0.418122D+00
   0   174    0.100000D+01    0.119942D+01    0.776159D-05   -0.418119D+00
   0   175    0.100000D+01    0.119941D+01    0.745322D-05   -0.418117D+00
   0   176    0.100000D+01    0.119941D+01    0.131005D-04   -0.418116D+00
   0   177    0.100000D+01    0.119941D+01    0.236283D-05   -0.418115D+00
   0   178    0.100000D+01    0.119940D+01    0.327179D-04   -0.418114D+00
   0   179    0.100000D+01    0.119940D+01    0.378954D-04   -0.418113D+00
   0   180    0.100000D+01    0.119939D+01    0.184180D-04   -0.418112D+00
   0   181    0.100000D+01    0.119938D+01    0.360195D-04   -0.418109D+00
   0   182    0.100000D+01    0.119937D+01    0.105070D-03   -0.418105D+00
   0   183    0.100000D+01    0.119935D+01    0.743796D-04   -0.418100D+00
   0   184    0.100000D+01    0.119932D+01    0.243184D-04   -0.418094D+00
   0   185    0.100000D+01    0.119930D+01    0.750984D-04   -0.418086D+00
   0   186    0.100000D+01    0.119926D+01    0.194081D-03   -0.418077D+00
   0   187    0.100000D+01    0.119923D+01    0.235117D-03   -0.418068D+00
   0   188    0.100000D+01    0.119919D+01    0.260418D-03   -0.418059D+00
   0   189    0.999999D+00    0.119916D+01    0.543093D-03   -0.418050D+00
   0   190    0.999999D+00    0.119913D+01    0.591994D-03   -0.418042D+00
   0   191    0.999999D+00    0.119911D+01    0.921789D-03   -0.418036D+00
   0   192    0.999999D+00    0.119909D+01    0.974613D-03   -0.418032D+00
   0   193    0.999999D+00    0.119909D+01    0.223854D-03   -0.418030D+00
   0   194    0.999998D+00    0.119909D+01    0.930187D-03   -0.418031D+00
   0   195    0.999998D+00    0.119910D+01   -0.182152D-03   -0.418033D+00
   0   196    0.999997D+00    0.119912D+01    0.320464D-02   -0.418038D+00
   0   197    0.999996D+00    0.119914D+01    0.151606D-02   -0.418045D+00
   0   198    0.999995D+00    0.119917D+01    0.284543D-02   -0.418052D+00
   0   199    0.999994D+00    0.119920D+01    0.269781D-02   -0.418059D+00
   0   200    0.999992D+00    0.119922D+01    0.836375D-03   -0.418065D+00
   0   201    0.999990D+00    0.119923D+01    0.939284D-02   -0.418069D+00
   0   202    0.999988D+00    0.119923D+01    0.800751D-02   -0.418069D+00
   0   203    0.999985D+00    0.119921D+01    0.127387D-01   -0.418063D+00
   0   204    0.999980D+00    0.119917D+01   -0.885182D-03   -0.418052D+00
   0   205    0.999975D+00    0.119910D+01    0.852662D-02   -0.418034D+00
   0   206    0.999968D+00    0.119901D+01    0.223810D-01   -0.418009D+00
   0   207    0.999960D+00    0.119889D+01    0.493644D-01   -0.417977D+00
   0   208    0.999950D+00    0.119875D+01    0.509877D-01   -0.417940D+00
   0   209    0.999937D+00    0.119859D+01    0.629812D-01   -0.417898D+00
   0   210    0.999920D+00    0.119842D+01    0.400709D-01   -0.417853D+00
   0   211    0.999901D+00    0.119824D+01    0.767809D-01   -0.417806D+00
   0   212    0.999875D+00    0.119807D+01    0.989662D-01   -0.417759D+00
   0   213    0.999845D+00    0.119788D+01    0.622882D-01   -0.417710D+00
   0   214    0.999802D+00    0.119770D+01    0.431493D-01   -0.417662D+00
   0   215    0.999751D+00    0.119751D+01   -0.401150D-02   -0.417610D+00
   0   216    0.999686D+00    0.119729D+01    0.188277D+00   -0.417552D+00
   0   217    0.999604D+00    0.119705D+01    0.173401D+00   -0.417485D+00
   0   218    0.999493D+00    0.119677D+01    0.509040D+00   -0.417411D+00
   0   219    0.999347D+00    0.119645D+01    0.265246D+00   -0.417325D+00
   0   220    0.999200D+00    0.119608D+01    0.890209D+00   -0.417226D+00
   0   221    0.999000D+00    0.119570D+01    0.159605D+00   -0.417121D+00
   0   222    0.998744D+00    0.119527D+01    0.945630D+00   -0.417007D+00
   0   223    0.998408D+00    0.119477D+01    0.913634D-01   -0.416873D+00
   0   224    0.997965D+00    0.119421D+01    0.221861D+01   -0.416717D+00
   0   225    0.997510D+00    0.119348D+01    0.926910D+00   -0.416518D+00
   0   226    0.996826D+00    0.119268D+01    0.260975D+01   -0.416297D+00
   0   227    0.996048D+00    0.119163D+01    0.240090D+01   -0.416008D+00
   0   228    0.995014D+00    0.119034D+01    0.272421D+01   -0.415640D+00
   0   229    0.993708D+00    0.118879D+01    0.585982D+01   -0.415223D+00
   0   230    0.992293D+00    0.118683D+01    0.618000D+01   -0.414653D+00
   0   231    0.990375D+00    0.118450D+01    0.619480D+01   -0.413994D+00
   0   232    0.988007D+00    0.118142D+01   -0.319160D+00   -0.413107D+00
   0   233    0.984820D+00    0.117823D+01    0.605092D+01   -0.412152D+00
   0   234    0.981657D+00    0.117405D+01    0.806825D+01   -0.410858D+00
   0   235    0.977427D+00    0.116936D+01    0.406189D+01   -0.409396D+00
   0   236    0.972626D+00    0.116338D+01    0.299434D+01   -0.407460D+00
   0   237    0.966735D+00    0.115702D+01    0.214566D+02   -0.405413D+00
   0   238    0.960278D+00    0.114994D+01   -0.376753D+01   -0.402866D+00
   0   239    0.952671D+00    0.114249D+01    0.373295D+02   -0.400182D+00
   0   240    0.944722D+00    0.113304D+01    0.153340D+02   -0.396669D+00
   0   241    0.934802D+00    0.112396D+01    0.618925D+02   -0.392871D+00
   0   242    0.926533D+00    0.111339D+01   -0.317803D+01   -0.388560D+00
   0   243    0.917378D+00    0.110325D+01   -0.248585D+02   -0.383675D+00
   0   244    0.908359D+00    0.109281D+01    0.372715D+02   -0.378280D+00
   0   245    0.902015D+00    0.108200D+01    0.576308D+02   -0.372778D+00
   0   246    0.894674D+00    0.106927D+01    0.158361D+02   -0.364669D+00
   0   247    0.886128D+00    0.106136D+01    0.401736D+02   -0.360410D+00
   0   248    0.880587D+00    0.105355D+01   -0.912034D+01   -0.355013D+00
   0   249    0.873030D+00    0.104620D+01    0.837882D+02   -0.349388D+00
   0   250    0.865815D+00    0.103705D+01    0.543425D+02   -0.342518D+00
   0   251    0.857233D+00    0.102879D+01    0.379407D+02   -0.334601D+00
   0   252    0.847894D+00    0.101969D+01    0.756319D+02   -0.327298D+00
   0   253    0.839841D+00    0.100862D+01    0.149543D+02   -0.316801D+00
   0   254    0.827566D+00    0.994860D+00    0.128127D+02   -0.300651D+00
   0   255    0.818679D+00    0.982059D+00   -0.453829D+02   -0.285219D+00
   0   256    0.802856D+00    0.967987D+00    0.948972D+02   -0.262852D+00
   0   257    0.785546D+00    0.946242D+00   -0.310013D+02   -0.226768D+00
   0   258    0.753738D+00    0.916143D+00    0.942135D+02   -0.156990D+00
   0   259    0.701586D+00    0.874663D+00    0.242892D+03   -0.310636D-01
   0   260    0.595039D+00    0.783188D+00    0.283550D+03    0.225026D+00
   0   261    0.366961D+00    0.565572D+00    0.569290D+03    0.408498D+00
   0   262    0.161634D+00    0.306129D+00    0.369350D+03    0.454772D+00
   0   263    0.612129D-01    0.134102D+00    0.166502D+03    0.467975D+00
   0   264    0.211626D-01    0.524792D-01    0.455621D+02    0.472312D+00
   0   265    0.722584D-02    0.192345D-01    0.225270D+02    0.473838D+00
   0   266    0.246640D-02    0.687408D-02    0.745430D+01    0.474379D+00
   0   267    0.854163D-03    0.239859D-02    0.220493D+01    0.474571D+00
   0   268    0.290552D-03    0.825797D-03    0.748856D+00    0.474638D+00
   0   269    0.966668D-04    0.283816D-03    0.317726D+00    0.474661D+00
   0   270    0.329693D-04    0.971823D-04    0.756672D-01    0.474668D+00
   0   271    0.111035D-04    0.329852D-04    0.269058D-01    0.474671D+00
   0   272    0.382734D-05    0.111805D-04    0.861423D-02    0.474672D+00
   0   273    0.128142D-05    0.381807D-05    0.339242D-02    0.474672D+00
   0   274    0.443656D-06    0.129426D-05    0.104919D-02    0.474673D+00
   0   275    0.148160D-06    0.440404D-06    0.400808D-03    0.474673D+00
   0   276    0.507939D-07    0.149977D-06    0.125262D-03    0.474673D+00
   0   277    0.171929D-07    0.509459D-07    0.390663D-04    0.474673D+00
   0   278    0.592855D-08    0.172529D-07    0.170560D-04    0.474673D+00
   0   279    0.199637D-08    0.585371D-08    0.539129D-05    0.474673D+00
   0   280    0.668866D-09    0.200910D-08    0.169335D-05    0.474673D+00
   0   281    0.227616D-09    0.678147D-09    0.506166D-06    0.474673D+00
   0   282    0.779300D-10    0.230139D-09    0.193219D-06    0.474673D+00
   0   283    0.266176D-10    0.782062D-10    0.513466D-07    0.474673D+00
   0   284    0.900244D-11    0.264579D-10    0.226657D-07    0.474673D+00
   0   285    0.307918D-11    0.896829D-11    0.721948D-08    0.474673D+00
   0   286    0.102478D-11    0.304467D-11    0.314456D-08    0.474673D+00
   0   287    0.344361D-12    0.103078D-11    0.847869D-09    0.474673D+00
   0   288    0.117057D-12    0.348023D-12    0.335440D-09    0.474673D+00
   0   289    0.400187D-13    0.118371D-12    0.110918D-09    0.474673D+00
   0   290    0.137122D-13    0.404915D-13    0.354754D-10    0.474673D+00
   0   291    0.467069D-14    0.137200D-13    0.114092D-10    0.474673D+00
   0   292    0.158729D-14    0.468084D-14    0.397597D-11    0.474673D+00
   0   293    0.544450D-15    0.158184D-14    0.130490D-11    0.474673D+00
   0   294    0.183611D-15    0.537266D-15    0.423071D-12    0.474673D+00
   0   295    0.614965D-16    0.182173D-15    0.160253D-12    0.474673D+00
   0   296    0.208780D-16    0.617908D-16    0.564206D-13    0.474673D+00
   0   297    0.703816D-17    0.208763D-16    0.210208D-13    0.474673D+00
   0   298    0.236103D-17    0.705488D-17    0.618023D-14    0.474673D+00
   0   299    0.819558D-18    0.240125D-17    0.148848D-14    0.474673D+00
   0   300    0.278900D-18    0.815131D-18    0.697848D-15    0.474673D+00
   0   301    0.938069D-19    0.277874D-18    0.201184D-15    0.474673D+00
   0   302    0.316838D-19    0.941873D-19    0.627390D-16    0.474673D+00
   0   303    0.107174D-19    0.321352D-19    0.259802D-16    0.474673D+00
   0   304    0.363986D-20    0.108693D-19    0.106697D-16    0.474673D+00
   0   305    0.124828D-20    0.371307D-20    0.264516D-17    0.474673D+00
   0   306    0.426223D-21    0.127080D-20    0.107019D-17    0.474673D+00
   0   307    0.143323D-21    0.430233D-21    0.409041D-18    0.474673D+00
   0   308    0.494931D-22    0.145589D-21    0.143977D-18    0.474673D+00
   0   309    0.168155D-22    0.494496D-22    0.400016D-19    0.474673D+00
   0   310    0.568470D-23    0.168402D-22    0.143513D-19    0.474673D+00
   0   311    0.193937D-23    0.570517D-23    0.475797D-20    0.474673D+00
   0   312    0.645408D-24    0.192350D-23    0.165726D-20    0.474673D+00
   0   313    0.219276D-24    0.649656D-24    0.564017D-21    0.474673D+00
   0   314    0.746985D-25    0.221580D-24    0.203541D-21    0.474673D+00
   0   315    0.256747D-25    0.755785D-25    0.600599D-22    0.474673D+00
   0   316    0.864277D-26    0.257324D-25    0.267770D-22    0.474673D+00
   0   317    0.296397D-26    0.872096D-26    0.744296D-23    0.474673D+00
   0   318    0.100097D-26    0.297185D-26    0.198191D-23    0.474673D+00
   0   319    0.342761D-27    0.101214D-26    0.103337D-23    0.474673D+00
   0   320    0.116742D-27    0.342475D-27    0.228309D-24    0.474673D+00
   0   321    0.394882D-28    0.116361D-27    0.109460D-24    0.474673D+00
   0   322    0.134668D-28    0.395986D-28    0.385732D-25    0.474673D+00
   0   323    0.454945D-29    0.134221D-28    0.119541D-25    0.474673D+00
   0   324    0.154681D-29    0.454502D-29    0.472182D-26    0.474673D+00
   0   325    0.515375D-30    0.153453D-29    0.159435D-26    0.474673D+00
   0   326    0.173846D-30    0.518461D-30    0.551208D-27    0.474673D+00
   0   327    0.593418D-31    0.174797D-30    0.131004D-27    0.474673D+00
   0   328    0.198666D-31    0.594658D-31    0.630647D-28    0.474673D+00
   0   329    0.679667D-32    0.201143D-31    0.144679D-28    0.474673D+00
   0   330    0.225761D-32    0.682693D-32    0.624235D-29    0.474673D+00
   0   331    0.774585D-33    0.231835D-32    0.153217D-29    0.474673D+00
   0   332    0.267119D-33    0.792579D-33    0.654198D-30    0.474673D+00
   0   333    0.921733D-34    0.270713D-33    0.237035D-30    0.474673D+00
   0   334    0.307547D-34    0.915530D-34    0.683190D-31    0.474673D+00
   0   335    0.104417D-34    0.311571D-34    0.217881D-31    0.474673D+00
   0   336    0.350282D-35    0.105073D-34    0.877056D-32    0.474673D+00
   0   337    0.118438D-35    0.355806D-35    0.328135D-32    0.474673D+00
   0   338    0.402971D-36    0.120949D-35    0.947659D-33    0.474673D+00
   0   339    0.138558D-36    0.410586D-36    0.273634D-33    0.474673D+00
   0   340    0.474578D-37    0.140028D-36    0.109262D-33    0.474673D+00
   0   341    0.162171D-37    0.481264D-37    0.321452D-34    0.474673D+00
   0   342    0.559923D-38    0.163946D-37    0.166483D-34    0.474673D+00
   0   343    0.191505D-38    0.561915D-38    0.410417D-35    0.474673D+00
   0   344    0.648248D-39    0.190754D-38    0.134707D-35    0.474673D+00
   0   345    0.218822D-39    0.651873D-39    0.599895D-36    0.474673D+00
   0   346    0.743149D-40    0.219991D-39    0.225813D-36    0.474673D+00
   0   347    0.251825D-40    0.741775D-40    0.657312D-37    0.474673D+00
   0   348    0.838438D-41    0.250670D-40    0.181383D-37    0.474673D+00
   0   349    0.285254D-41    0.851459D-41    0.864803D-38    0.474673D+00
   0   350    0.972130D-42    0.288458D-41    0.238902D-38    0.474673D+00
   0   351    0.331764D-42    0.974227D-42    0.852696D-39    0.474673D+00
   0   352    0.111594D-42    0.328933D-42    0.270427D-39    0.474673D+00
   0   353    0.377124D-43    0.111693D-42    0.842821D-40    0.474673D+00
   0   354    0.127894D-43    0.377629D-43    0.305317D-40    0.474673D+00
   0   355    0.434267D-44    0.128040D-43    0.960013D-41    0.474673D+00
   0   356    0.144091D-44    0.435200D-44    0.442037D-41    0.474673D+00
   0   357    0.495949D-45    0.148008D-44    0.123802D-41    0.474673D+00
   0   358    0.169221D-45    0.501340D-45    0.417349D-42    0.474673D+00
   0   359    0.584729D-46    0.171180D-45    0.131788D-42    0.474673D+00
   0   360    0.199320D-46    0.578723D-46    0.560835D-43    0.474673D+00
   0   361    0.666001D-47    0.197257D-46    0.171078D-43    0.474673D+00
   0   362    0.225542D-47    0.673682D-47    0.501310D-44    0.474673D+00
   0   363    0.766859D-48    0.228393D-47    0.165424D-44    0.474673D+00
   0   364    0.258569D-48    0.775454D-48    0.639832D-45    0.474673D+00
   0   365    0.886811D-49    0.262979D-48    0.250781D-45    0.474673D+00
   0   366    0.305087D-49    0.895485D-49    0.817168D-46    0.474673D+00
   0   367    0.105063D-49    0.305266D-49    0.294241D-46    0.474673D+00
   0   368    0.357338D-50    0.103474D-49    0.760063D-47    0.474673D+00
   0   369    0.120314D-50    0.351427D-50    0.342888D-47    0.474673D+00
   0   370    0.405173D-51    0.119818D-50    0.113459D-47    0.474673D+00
   0   371    0.136686D-51    0.405998D-51    0.376052D-48    0.474673D+00
   0   372    0.472757D-52    0.137437D-51    0.910176D-49    0.474673D+00
   0   373    0.159830D-52    0.468878D-52    0.482265D-49    0.474673D+00
   0   374    0.544578D-53    0.159023D-52    0.159861D-49    0.474673D+00
   0   375    0.182722D-53    0.541746D-53    0.586007D-50    0.474673D+00
   0   376    0.615089D-54    0.183327D-53    0.140801D-50    0.474673D+00
   0   377    0.209297D-54    0.619780D-54    0.398396D-51    0.474673D+00
   0   378    0.702807D-55    0.210654D-54    0.195241D-51    0.474673D+00
   0   379    0.240137D-55    0.713801D-55    0.457608D-52    0.474673D+00
   0   380    0.813190D-56    0.242749D-55    0.216343D-52    0.474673D+00
   0   381    0.275084D-56    0.826761D-56    0.870403D-53    0.474673D+00
   0   382    0.931856D-57    0.279684D-56    0.252029D-53    0.474673D+00
   0   383    0.319323D-57    0.956913D-57    0.621019D-54    0.474673D+00
   0   384    0.109170D-57    0.325959D-57    0.319392D-54    0.474673D+00
   0   385    0.373087D-58    0.110830D-57    0.854781D-55    0.474673D+00
   0   386    0.126886D-58    0.377927D-58    0.353012D-55    0.474673D+00
   0   387    0.432594D-59    0.128304D-58    0.101364D-55    0.474673D+00
   0   388    0.146719D-59    0.435826D-59    0.454686D-56    0.474673D+00
   0   389    0.494619D-60    0.148082D-59    0.108820D-56    0.474673D+00
   0   390    0.168490D-60    0.504785D-60    0.460476D-57    0.474673D+00
   0   391    0.571263D-61    0.170956D-60    0.143688D-57    0.474673D+00
   0   392    0.198291D-61    0.580558D-61    0.565552D-58    0.474673D+00
   0   393    0.678680D-62    0.197492D-61    0.193376D-58    0.474673D+00
   0   394    0.227488D-62    0.666803D-62    0.491725D-59    0.474673D+00
   0   395    0.773817D-63    0.226646D-62    0.223207D-59    0.474673D+00
   0   396    0.261834D-63    0.772594D-63    0.677959D-60    0.474673D+00
   0   397    0.892325D-64    0.263644D-63    0.181228D-60    0.474673D+00