variables =  "IG"  "JG"  "PHI"  "Temp."  "Latent_heat"  "mm"
ZONE  I=  401  J=  101
   0     0    0.100000D+01    0.575940D+00    0.133836D-10    0.402930D+00
   0     1    0.100000D+01    0.575940D+00    0.000000D+00    0.402930D+00
   0     2    0.100000D+01    0.580188D+00   -0.267673D-10    0.401409D+00
   0     3    0.100000D+01    0.588571D+00    0.133836D-09    0.398285D+00
   0     4    0.100000D+01    0.600870D+00    0.575496D-09    0.393384D+00
   0     5    0.100000D+01    0.616765D+00    0.259642D-08    0.386423D+00
   0     6    0.100000D+01    0.635849D+00   -0.762867D-09    0.376973D+00
   0     7    0.100000D+01    0.657646D+00   -0.803018D-10    0.364411D+00
   0     8    0.100000D+01    0.681628D+00    0.767685D-07    0.347845D+00
   0     9    0.100000D+01    0.707234D+00    0.537085D-07    0.326009D+00
   0    10    0.100000D+01    0.733891D+00   -0.224393D-05    0.297157D+00
   0    11    0.100000D+01    0.761039D+00    0.164738D-05    0.259033D+00
   0    12    0.100000D+01    0.788144D+00    0.658418D-04    0.209188D+00
   0    13    0.100000D+01    0.814721D+00   -0.180354D-03    0.146193D+00
   0    14    0.999999D+00    0.840350D+00    0.936502D-03    0.720419D-01
   0    15    0.999995D+00    0.864690D+00    0.124562D-02   -0.615806D-02
   0    16    0.999986D+00    0.887486D+00   -0.233202D-02   -0.789405D-01
   0    17    0.999966D+00    0.908580D+00    0.969884D-02   -0.140035D+00
   0    18    0.999926D+00    0.927907D+00   -0.778018D-02   -0.188247D+00
   0    19    0.999862D+00    0.945504D+00   -0.358642D-01   -0.225388D+00
   0    20    0.999784D+00    0.961456D+00   -0.543573D-01   -0.253970D+00
   0    21    0.999712D+00    0.975918D+00   -0.103649D+00   -0.276224D+00
   0    22    0.999667D+00    0.989044D+00    0.174169D+00   -0.293836D+00
   0    23    0.999648D+00    0.100097D+01   -0.175039D+00   -0.308006D+00
   0    24    0.999645D+00    0.101182D+01    0.144399D+00   -0.319566D+00
   0    25    0.999624D+00    0.102163D+01    0.193144D+00   -0.329062D+00
   0    26    0.999569D+00    0.103048D+01   -0.932353D-01   -0.336937D+00
   0    27    0.999479D+00    0.103842D+01    0.209913D+00   -0.343504D+00
   0    28    0.999372D+00    0.104558D+01   -0.539529D-02   -0.349040D+00
   0    29    0.999248D+00    0.105208D+01   -0.439601D+00   -0.353794D+00
   0    30    0.999135D+00    0.105811D+01   -0.978337D-01   -0.357980D+00
   0    31    0.999041D+00    0.106379D+01    0.617380D+00   -0.361745D+00
   0    32    0.999002D+00    0.106927D+01    0.435138D+00   -0.365210D+00
   0    33    0.998996D+00    0.107464D+01   -0.339610D-01   -0.368474D+00
   0    34    0.999003D+00    0.107989D+01   -0.238832D+00   -0.371533D+00
   0    35    0.999022D+00    0.108510D+01    0.264846D+00   -0.374444D+00
   0    36    0.999013D+00    0.109022D+01    0.453629D+00   -0.377201D+00
   0    37    0.998982D+00    0.109528D+01    0.726533D+00   -0.379829D+00
   0    38    0.998971D+00    0.110029D+01    0.335052D-01   -0.382334D+00
   0    39    0.998947D+00    0.110528D+01   -0.429800D+00   -0.384741D+00
   0    40    0.998910D+00    0.111028D+01    0.188868D+00   -0.387069D+00
   0    41    0.998846D+00    0.111529D+01   -0.522715D+00   -0.389322D+00
   0    42    0.998832D+00    0.112040D+01    0.466425D-03   -0.391544D+00
   0    43    0.998830D+00    0.112561D+01    0.845369D-01   -0.393733D+00
   0    44    0.998882D+00    0.113096D+01   -0.234610D+00   -0.395896D+00
   0    45    0.998984D+00    0.113645D+01   -0.328107D+00   -0.398048D+00
   0    46    0.999066D+00    0.114200D+01   -0.130394D+00   -0.400134D+00
   0    47    0.999224D+00    0.114748D+01   -0.490258D+00   -0.402136D+00
   0    48    0.999369D+00    0.115280D+01    0.145387D+00   -0.404006D+00
   0    49    0.999485D+00    0.115778D+01    0.277999D+00   -0.405706D+00
   0    50    0.999597D+00    0.116234D+01   -0.614189D-01   -0.407216D+00
   0    51    0.999691D+00    0.116638D+01    0.772658D-01   -0.408522D+00
   0    52    0.999755D+00    0.116988D+01    0.266400D-01   -0.409625D+00
   0    53    0.999804D+00    0.117284D+01    0.935000D-01   -0.410541D+00
   0    54    0.999835D+00    0.117528D+01    0.627299D-01   -0.411286D+00
   0    55    0.999851D+00    0.117727D+01    0.865489D-01   -0.411884D+00
   0    56    0.999856D+00    0.117885D+01    0.405336D-02   -0.412355D+00
   0    57    0.999852D+00    0.118009D+01    0.514373D-01   -0.412722D+00
   0    58    0.999837D+00    0.118104D+01    0.570738D-01   -0.412999D+00
   0    59    0.999810D+00    0.118173D+01    0.170544D+00   -0.413202D+00
   0    60    0.999777D+00    0.118222D+01    0.267382D+00   -0.413343D+00
   0    61    0.999740D+00    0.118251D+01   -0.316038D-01   -0.413429D+00
   0    62    0.999691D+00    0.118266D+01   -0.461708D-01   -0.413472D+00
   0    63    0.999623D+00    0.118268D+01   -0.309292D-02   -0.413476D+00
   0    64    0.999542D+00    0.118259D+01    0.455840D+00   -0.413452D+00
   0    65    0.999441D+00    0.118244D+01    0.149413D+00   -0.413406D+00
   0    66    0.999302D+00    0.118222D+01    0.813303D+00   -0.413342D+00
   0    67    0.999166D+00    0.118198D+01   -0.345904D-01   -0.413271D+00
   0    68    0.998962D+00    0.118169D+01    0.108347D+01   -0.413188D+00
   0    69    0.998747D+00    0.118141D+01    0.158440D+00   -0.413108D+00
   0    70    0.998447D+00    0.118106D+01    0.138483D+01   -0.413003D+00
   0    71    0.998080D+00    0.118066D+01    0.193227D+01   -0.412886D+00
   0    72    0.997612D+00    0.118016D+01    0.124103D+00   -0.412734D+00
   0    73    0.996992D+00    0.117954D+01    0.169389D+01   -0.412553D+00
   0    74    0.996336D+00    0.117885D+01    0.232232D+01   -0.412351D+00
   0    75    0.995550D+00    0.117791D+01    0.355082D+01   -0.412074D+00
   0    76    0.994418D+00    0.117675D+01    0.628991D+01   -0.411718D+00
   0    77    0.993102D+00    0.117533D+01    0.694676D+01   -0.411289D+00
   0    78    0.991487D+00    0.117352D+01    0.195251D+01   -0.410734D+00
   0    79    0.989547D+00    0.117145D+01    0.886282D+01   -0.410082D+00
   0    80    0.987122D+00    0.116874D+01    0.950470D+00   -0.409235D+00
   0    81    0.984629D+00    0.116594D+01   -0.208689D+01   -0.408360D+00
   0    82    0.981157D+00    0.116230D+01    0.639026D+01   -0.407197D+00
   0    83    0.976666D+00    0.115790D+01    0.786228D+01   -0.405663D+00
   0    84    0.971954D+00    0.115264D+01   -0.116248D+01   -0.403918D+00
   0    85    0.966789D+00    0.114609D+01    0.312138D+02   -0.401612D+00
   0    86    0.960801D+00    0.113982D+01    0.260162D+02   -0.399230D+00
   0    87    0.953652D+00    0.113311D+01    0.109716D+02   -0.396628D+00
   0    88    0.945769D+00    0.112431D+01    0.675380D+01   -0.393190D+00
   0    89    0.938090D+00    0.111531D+01    0.129288D+02   -0.389062D+00
   0    90    0.928869D+00    0.110587D+01    0.315614D+02   -0.384980D+00
   0    91    0.922692D+00    0.109565D+01   -0.311287D+02   -0.380029D+00
   0    92    0.914597D+00    0.108602D+01   -0.586294D+01   -0.375048D+00
   0    93    0.905972D+00    0.107568D+01   -0.325053D+01   -0.368879D+00
   0    94    0.897794D+00    0.106527D+01    0.554482D+02   -0.362906D+00
   0    95    0.887511D+00    0.105570D+01    0.436348D+02   -0.355825D+00
   0    96    0.877592D+00    0.104535D+01    0.644382D+02   -0.349050D+00
   0    97    0.868263D+00    0.103389D+01    0.815484D+02   -0.339948D+00
   0    98    0.859972D+00    0.102482D+01    0.981734D+00   -0.332144D+00
   0    99    0.846777D+00    0.100984D+01   -0.507476D+02   -0.317194D+00
   0   100    0.833592D+00    0.996447D+00   -0.301379D+02   -0.303382D+00
   0   101    0.823480D+00    0.983965D+00    0.143967D+02   -0.287615D+00
   0   102    0.805309D+00    0.968329D+00    0.144898D+03   -0.263178D+00
   0   103    0.787292D+00    0.947560D+00    0.255457D+02   -0.227030D+00
   0   104    0.755735D+00    0.914204D+00    0.513313D+02   -0.154464D+00
   0   105    0.699111D+00    0.863858D+00    0.317202D+03    0.250461D-02
   0   106    0.572090D+00    0.750179D+00    0.278723D+03    0.279374D+00
   0   107    0.328806D+00    0.514938D+00    0.683705D+03    0.422095D+00
   0   108    0.141007D+00    0.265953D+00    0.243142D+03    0.458472D+00
   0   109    0.516932D-01    0.115307D+00    0.137828D+03    0.469054D+00
   0   110    0.179083D-01    0.442075D-01    0.379571D+02    0.472696D+00
   0   111    0.612306D-02    0.162000D-01    0.176528D+02    0.473973D+00
   0   112    0.204793D-02    0.569945D-02    0.654745D+01    0.474430D+00
   0   113    0.694379D-03    0.197302D-02    0.183091D+01    0.474589D+00
   0   114    0.237231D-03    0.676054D-03    0.503670D+00    0.474644D+00
   0   115    0.804972D-04    0.230187D-03    0.232757D+00    0.474663D+00
   0   116    0.274590D-04    0.785315D-04    0.760538D-01    0.474669D+00
   0   117    0.932273D-05    0.267535D-04    0.274300D-01    0.474671D+00
   0   118    0.312457D-05    0.910713D-05    0.826870D-02    0.474672D+00
   0   119    0.106400D-05    0.310758D-05    0.231040D-02    0.474672D+00
   0   120    0.362816D-06    0.105955D-05    0.781780D-03    0.474673D+00
   0   121    0.124008D-06    0.360661D-06    0.347269D-03    0.474673D+00
   0   122    0.414268D-07    0.121710D-06    0.950340D-04    0.474673D+00
   0   123    0.138855D-07    0.414863D-07    0.433579D-04    0.474673D+00
   0   124    0.473802D-08    0.140218D-07    0.107981D-04    0.474673D+00
   0   125    0.163469D-08    0.477694D-08    0.331526D-05    0.474673D+00
   0   126    0.546339D-09    0.161021D-08    0.115894D-05    0.474673D+00
   0   127    0.188678D-09    0.546736D-09    0.540807D-06    0.474673D+00
   0   128    0.634053D-10    0.185947D-09    0.182941D-06    0.474673D+00
   0   129    0.214987D-10    0.630924D-10    0.452224D-07    0.474673D+00
   0   130    0.722500D-11    0.212683D-10    0.208745D-07    0.474673D+00
   0   131    0.241384D-11    0.713598D-11    0.587315D-08    0.474673D+00
   0   132    0.821831D-12    0.240695D-11    0.165492D-08    0.474673D+00
   0   133    0.273780D-12    0.809005D-12    0.647464D-09    0.474673D+00
   0   134    0.923014D-13    0.272687D-12    0.235561D-09    0.474673D+00
   0   135    0.311520D-13    0.924429D-13    0.871978D-10    0.474673D+00
   0   136    0.104947D-13    0.312333D-13    0.258489D-10    0.474673D+00
   0   137    0.356722D-14    0.104942D-13    0.935101D-11    0.474673D+00
   0   138    0.119911D-14    0.353611D-14    0.287368D-11    0.474673D+00
   0   139    0.400733D-15    0.119422D-14    0.107249D-11    0.474673D+00
   0   140    0.137091D-15    0.404360D-15    0.419151D-12    0.474673D+00
   0   141    0.463337D-16    0.136293D-15    0.906171D-13    0.474673D+00
   0   142    0.156410D-16    0.462068D-16    0.461312D-13    0.474673D+00
   0   143    0.526624D-17    0.155995D-16    0.114286D-13    0.474673D+00
   0   144    0.178798D-17    0.527730D-17    0.530331D-14    0.474673D+00
   0   145    0.614176D-18    0.178555D-17    0.137065D-14    0.474673D+00
   0   146    0.204035D-18    0.606296D-18    0.578557D-15    0.474673D+00
   0   147    0.689738D-19    0.204237D-18    0.199008D-15    0.474673D+00
   0   148    0.235627D-19    0.692018D-19    0.491764D-16    0.474673D+00
   0   149    0.785855D-20    0.233834D-19    0.167354D-16    0.474673D+00
   0   150    0.265849D-20    0.789088D-20    0.530539D-17    0.474673D+00
   0   151    0.887497D-21    0.267494D-20    0.220379D-17    0.474673D+00
   0   152    0.302457D-21    0.904365D-21    0.724395D-18    0.474673D+00
   0   153    0.103726D-21    0.305244D-21    0.219597D-18    0.474673D+00
   0   154    0.351029D-22    0.103741D-21    0.103136D-18    0.474673D+00
   0   155    0.119393D-22    0.351990D-22    0.366559D-19    0.474673D+00
   0   156    0.403854D-23    0.120129D-22    0.983571D-20    0.474673D+00
   0   157    0.137363D-23    0.403700D-23    0.331253D-20    0.474673D+00
   0   158    0.464051D-24    0.136861D-23    0.145146D-20    0.474673D+00
   0   159    0.159366D-24    0.465006D-24    0.461134D-21    0.474673D+00
   0   160    0.540370D-25    0.158656D-24    0.104781D-21    0.474673D+00
   0   161    0.180734D-25    0.535617D-25    0.421127D-22    0.474673D+00
   0   162    0.614316D-26    0.180800D-25    0.132952D-22    0.474673D+00
   0   163    0.206093D-26    0.611846D-26    0.457954D-23    0.474673D+00
   0   164    0.707956D-27    0.207235D-26    0.184653D-23    0.474673D+00
   0   165    0.236535D-27    0.704868D-27    0.528742D-24    0.474673D+00
   0   166    0.807268D-28    0.237910D-27    0.157466D-24    0.474673D+00
   0   167    0.277019D-28    0.812255D-28    0.611810D-25    0.474673D+00
   0   168    0.940173D-29    0.275955D-28    0.287983D-25    0.474673D+00
   0   169    0.321064D-29    0.939339D-29    0.852705D-26    0.474673D+00
   0   170    0.108314D-29    0.318654D-29    0.231743D-26    0.474673D+00
   0   171    0.363903D-30    0.108095D-29    0.106728D-26    0.474673D+00
   0   172    0.123611D-30    0.365317D-30    0.286522D-27    0.474673D+00
   0   173    0.419478D-31    0.124472D-30    0.112403D-27    0.474673D+00
   0   174    0.143444D-31    0.422665D-31    0.328434D-28    0.474673D+00
   0   175    0.484074D-32    0.143241D-31    0.115462D-28    0.474673D+00
   0   176    0.165917D-32    0.486627D-32    0.405909D-29    0.474673D+00
   0   177    0.568078D-33    0.165453D-32    0.166258D-29    0.474673D+00
   0   178    0.192634D-33    0.562659D-33    0.389683D-30    0.474673D+00
   0   179    0.650475D-34    0.189970D-33    0.155759D-30    0.474673D+00
   0   180    0.220005D-34    0.647925D-34    0.644701D-31    0.474673D+00
   0   181    0.742247D-35    0.219574D-34    0.209624D-31    0.474673D+00
   0   182    0.249548D-35    0.741653D-35    0.719633D-32    0.474673D+00
   0   183    0.868041D-36    0.253492D-35    0.209642D-32    0.474673D+00
   0   184    0.291799D-36    0.862124D-36    0.808208D-33    0.474673D+00
   0   185    0.992399D-37    0.292568D-36    0.245959D-33    0.474673D+00
   0   186    0.339440D-37    0.992829D-37    0.953564D-34    0.474673D+00
   0   187    0.114470D-37    0.338199D-37    0.357583D-34    0.474673D+00
   0   188    0.392658D-38    0.114630D-37    0.104853D-34    0.474673D+00
   0   189    0.131023D-38    0.389655D-38    0.407378D-35    0.474673D+00
   0   190    0.444071D-39    0.131052D-38    0.136930D-35    0.474673D+00
   0   191    0.151254D-39    0.443600D-39    0.379436D-36    0.474673D+00
   0   192    0.504397D-40    0.149389D-39    0.163548D-36    0.474673D+00
   0   193    0.170194D-40    0.503400D-40    0.510926D-37    0.474673D+00
   0   194    0.569646D-41    0.170690D-40    0.122846D-37    0.474673D+00
   0   195    0.193595D-41    0.579471D-41    0.391663D-38    0.474673D+00
   0   196    0.660766D-42    0.195884D-41    0.132191D-38    0.474673D+00
   0   197    0.223785D-42    0.666369D-42    0.469463D-39    0.474673D+00
   0   198    0.757506D-43    0.225419D-42    0.150689D-39    0.474673D+00
   0   199    0.259512D-43    0.766319D-43    0.511347D-40    0.474673D+00
   0   200    0.873513D-44    0.258629D-43    0.181212D-40    0.474673D+00
   0   201    0.295236D-44    0.876730D-44    0.899493D-41    0.474673D+00
   0   202    0.999503D-45    0.297429D-44    0.306624D-41    0.474673D+00
   0   203    0.337191D-45    0.100735D-44    0.808635D-42    0.474673D+00
   0   204    0.115620D-45    0.339257D-45    0.273540D-42    0.474673D+00
   0   205    0.394211D-46    0.114563D-45    0.951351D-43    0.474673D+00
   0   206    0.131385D-46    0.387928D-46    0.415703D-43    0.474673D+00
   0   207    0.444284D-47    0.131492D-46    0.126112D-43    0.474673D+00
   0   208    0.150332D-47    0.444416D-47    0.345317D-44    0.474673D+00
   0   209    0.507058D-48    0.149735D-47    0.116237D-44    0.474673D+00
   0   210    0.170860D-48    0.504131D-48    0.535645D-45    0.474673D+00
   0   211    0.576707D-49    0.170112D-48    0.149224D-45    0.474673D+00
   0   212    0.194363D-49    0.575959D-49    0.587224D-46    0.474673D+00
   0   213    0.652701D-50    0.194662D-49    0.188394D-46    0.474673D+00
   0   214    0.221866D-50    0.658566D-50    0.514187D-47    0.474673D+00
   0   215    0.737399D-51    0.222360D-50    0.200028D-47    0.474673D+00
   0   216    0.251991D-51    0.748748D-51    0.646174D-48    0.474673D+00
   0   217    0.858967D-52    0.250172D-51    0.166645D-48    0.474673D+00
   0   218    0.288616D-52    0.843193D-52    0.845622D-49    0.474673D+00
   0   219    0.963839D-53    0.283957D-52    0.307414D-49    0.474673D+00
   0   220    0.320386D-53    0.950009D-53    0.693615D-50    0.474673D+00
   0   221    0.106968D-53    0.317179D-53    0.253603D-50    0.474673D+00
   0   222    0.356258D-54    0.105899D-53    0.987171D-51    0.474673D+00
   0   223    0.118014D-54    0.350607D-54    0.255361D-51    0.474673D+00
   0   224    0.393769D-55    0.115939D-54    0.967828D-52    0.474673D+00
   0   225    0.128219D-55    0.383436D-55    0.322564D-52    0.474673D+00
   0   226    0.422221D-56    0.125937D-55    0.128705D-52    0.474673D+00
   0   227    0.139459D-56    0.416765D-56    0.452115D-53    0.474673D+00
   0   228    0.464071D-57    0.137121D-56    0.113308D-53    0.474673D+00
   0   229    0.154418D-57    0.452688D-57    0.498259D-54    0.474673D+00
   0   230    0.506287D-58    0.148952D-57    0.129401D-54    0.474673D+00
   0   231    0.165764D-58    0.490643D-58    0.410702D-55    0.474673D+00
   0   232    0.548959D-59    0.160978D-58    0.151081D-55    0.474673D+00
   0   233    0.179166D-59    0.527054D-59    0.532130D-56    0.474673D+00
   0   234    0.583735D-60    0.172121D-59    0.159361D-56    0.474673D+00
   0   235    0.194045D-60    0.564757D-60    0.530620D-57    0.474673D+00
   0   236    0.632102D-61    0.183430D-60    0.169489D-57    0.474673D+00
   0   237    0.208540D-61    0.598057D-61    0.474880D-58    0.474673D+00
   0   238    0.669838D-62    0.193028D-61    0.155193D-58    0.474673D+00
   0   239    0.213992D-62    0.627571D-62    0.730548D-59    0.474673D+00
   0   240    0.689830D-63    0.201111D-62    0.200693D-59    0.474673D+00
   0   241    0.222443D-63    0.646845D-63    0.539216D-60    0.474673D+00
   0   242    0.709512D-64    0.207588D-63    0.242229D-60    0.474673D+00
   0   243    0.227295D-64    0.663420D-64    0.775637D-61    0.474673D+00
   0   244    0.732441D-65    0.210440D-64    0.241275D-61    0.474673D+00
   0   245    0.228493D-65    0.669469D-65    0.803039D-62    0.474673D+00
   0   246    0.727024D-66    0.212328D-65    0.242154D-62    0.474673D+00
   0   247    0.233344D-66    0.674694D-66    0.747299D-63    0.474673D+00
   0   248    0.738052D-67    0.214655D-66    0.223839D-63    0.474673D+00
   0   249    0.231448D-67    0.678009D-67    0.825581D-64    0.474673D+00
   0   250    0.739362D-68    0.212842D-67    0.210363D-64    0.474673D+00
   0   251    0.229051D-68    0.667633D-68    0.751889D-65    0.474673D+00
   0   252    0.724381D-69    0.209716D-68    0.203747D-65    0.474673D+00
   0   253    0.223576D-69    0.653332D-69    0.784107D-66    0.474673D+00
   0   254    0.696505D-70    0.202353D-69    0.214483D-66    0.474673D+00
   0   255    0.217540D-70    0.630490D-70    0.741885D-67    0.474673D+00
   0   256    0.679597D-71    0.195160D-70    0.212492D-67    0.474673D+00
   0   257    0.209465D-71    0.603851D-71    0.640130D-68    0.474673D+00
   0   258    0.652584D-72    0.187542D-71    0.176605D-68    0.474673D+00
   0   259    0.199007D-72    0.577148D-72    0.711248D-69    0.474673D+00
   0   260    0.611553D-73    0.176742D-72    0.216969D-69    0.474673D+00
   0   261    0.186145D-73    0.537869D-73    0.521230D-70    0.474673D+00
   0   262    0.567453D-74    0.163922D-73    0.187509D-70    0.474673D+00
   0   263    0.170311D-74    0.497318D-74    0.557576D-71    0.474673D+00
   0   264    0.514433D-75    0.149470D-74    0.161358D-71    0.474673D+00
   0   265    0.155389D-75    0.451577D-75    0.582162D-72    0.474673D+00
   0   266    0.469591D-76    0.135040D-75    0.148040D-72    0.474673D+00
   0   267    0.141130D-76    0.406401D-76    0.540011D-73    0.474673D+00
   0   268    0.418497D-77    0.121108D-76    0.151356D-73    0.474673D+00
   0   269    0.125930D-77    0.361708D-77    0.347501D-74    0.474673D+00
   0   270    0.372624D-78    0.108015D-77    0.134004D-74    0.474673D+00
   0   271    0.111936D-78    0.322215D-78    0.301883D-75    0.474673D+00
   0   272    0.330939D-79    0.952864D-79    0.106060D-75    0.474673D+00
   0   273    0.987142D-80    0.281409D-79    0.289470D-76    0.474673D+00
   0   274    0.292341D-80    0.827745D-80    0.944674D-77    0.474673D+00
   0   275    0.844495D-81    0.242469D-80    0.344109D-77    0.474673D+00
   0   276    0.244793D-81    0.714010D-81    0.989089D-78    0.474673D+00
   0   277    0.723120D-82    0.207836D-81    0.241541D-78    0.474673D+00
   0   278    0.209281D-82    0.601586D-82    0.704721D-79    0.474673D+00
   0   279    0.613319D-83    0.174025D-82    0.173428D-79    0.474673D+00
   0   280    0.177566D-83    0.502266D-83    0.648292D-80    0.474673D+00
   0   281    0.502848D-84    0.144878D-83    0.199210D-80    0.474673D+00
   0   282    0.144019D-84    0.416727D-84    0.544064D-81    0.474673D+00
   0   283    0.416619D-85    0.119143D-84    0.140947D-81    0.474673D+00
   0   284    0.119062D-85    0.340094D-85    0.466843D-82    0.474673D+00
   0   285    0.336827D-86    0.963534D-86    0.121288D-82    0.474673D+00
   0   286    0.946043D-87    0.272195D-86    0.370224D-83    0.474673D+00
   0   287    0.269446D-87    0.767163D-87    0.104542D-83    0.474673D+00
   0   288    0.759682D-88    0.215357D-87    0.307741D-84    0.474673D+00
   0   289    0.212873D-88    0.606709D-88    0.699071D-85    0.474673D+00
   0   290    0.598392D-89    0.170194D-88    0.212395D-85    0.474673D+00
   0   291    0.168884D-89    0.478711D-89    0.602429D-86    0.474673D+00
   0   292    0.473804D-90    0.133924D-89    0.186736D-86    0.474673D+00
   0   293    0.131782D-90    0.374812D-90    0.477896D-87    0.474673D+00
   0   294    0.362469D-91    0.103968D-90    0.132349D-87    0.474673D+00
   0   295    0.999676D-92    0.287721D-91    0.406793D-88    0.474673D+00
   0   296    0.278422D-92    0.793536D-92    0.923844D-89    0.474673D+00
   0   297    0.763509D-93    0.218510D-92    0.295967D-89    0.474673D+00
   0   298    0.210545D-93    0.600570D-93    0.863528D-90    0.474673D+00
   0   299    0.572469D-94    0.163339D-93    0.219827D-90    0.474673D+00
   0   300    0.155546D-94    0.444751D-94    0.622380D-91    0.474673D+00
   0   301    0.422628D-95    0.120920D-94    0.148106D-91    0.474673D+00
   0   302    0.115507D-95    0.327700D-95    0.460885D-92    0.474673D+00
   0   303    0.312836D-96    0.887491D-96    0.112882D-92    0.474673D+00
   0   304    0.839508D-97    0.239867D-96    0.300083D-93    0.474673D+00
   0   305    0.228595D-97    0.644078D-97    0.985661D-94    0.474673D+00
   0   306    0.612985D-98    0.172905D-97    0.222982D-94    0.474673D+00
   0   307    0.163810D-98    0.464059D-98    0.645911D-95    0.474673D+00
   0   308    0.430302D-99    0.122727D-98    0.190653D-95    0.474673D+00
   0   309    0.114613D-99    0.325016D-99    0.534100D-96    0.474673D+00
   0   310    0.300881-100    0.852842-100    0.111355D-96    0.474673D+00
   0   311    0.793937-101    0.224688-100    0.347095D-97    0.474673D+00
   0   312    0.206536-101    0.590826-101    0.853159D-98    0.474673D+00
   0   313    0.542795-102    0.155069-101    0.210144D-98    0.474673D+00
   0   314    0.142865-102    0.405308-102    0.599266D-99    0.474673D+00
   0   315    0.373197-103    0.105866-102    0.153574D-99    0.474673D+00
   0   316    0.966460-104    0.276369-103    0.388688-100    0.474673D+00
   0   317    0.251660-104    0.717985-104    0.123544-100    0.474673D+00
   0   318    0.655324-105    0.186047-104    0.256175-101    0.474673D+00
   0   319    0.172424-105    0.477763-105    0.724703-102    0.474673D+00
   0   320    0.440338-106    0.123252-105    0.195590-102    0.474673D+00
   0   321    0.111213-106    0.315624-106    0.514110-103    0.474673D+00
   0   322    0.287362-107    0.801841-107    0.123423-103    0.474673D+00
   0   323    0.727810-108    0.203437-107    0.337298-104    0.474673D+00
   0   324    0.184230-108    0.515232-108    0.883945-105    0.474673D+00
   0   325    0.465983-109    0.131829-108    0.230925-105    0.474673D+00
   0   326    0.118432-109    0.333233-109    0.593792-106    0.474673D+00
   0   327    0.293876-110    0.833161-110    0.145067-106    0.474673D+00
   0   328    0.741104-111    0.209080-110    0.294301-107    0.474673D+00
   0   329    0.184883-111    0.525872-111    0.772789-108    0.474673D+00
   0   330    0.467873-112    0.132053-111    0.236052-108    0.474673D+00
   0   331    0.117326-112    0.331957-112    0.492462-109    0.474673D+00
   0   332    0.295068-113    0.828055-113    0.120617-109    0.474673D+00
   0   333    0.726883-114    0.204931-113    0.378592-110    0.474673D+00
   0   334    0.180252-114    0.508498-114    0.755970-111    0.474673D+00
   0   335    0.443704-115    0.125265-114    0.220185-111    0.474673D+00
   0   336    0.109200-115    0.306804-115    0.459450-112    0.474673D+00
   0   337    0.265165-116    0.750473-116    0.119773-112    0.474673D+00
   0   338    0.648585-117    0.182353-116    0.338305-113    0.474673D+00
   0   339    0.158350-117    0.443764-117    0.764605-114    0.474673D+00
   0   340    0.382786-118    0.107948-117    0.184166-114    0.474673D+00
   0   341    0.919608-119    0.261507-118    0.486662-115    0.474673D+00
   0   342    0.222452-119    0.627027-119    0.112691-115    0.474673D+00
   0   343    0.540546-120    0.151783-119    0.254958-116    0.474673D+00
   0   344    0.130533-120    0.363785-120    0.553877-117    0.474673D+00
   0   345    0.312592-121    0.872407-121    0.172174-117    0.474673D+00
   0   346    0.741426-122    0.209950-121    0.381033-118    0.474673D+00
   0   347    0.178650-122    0.502453-122    0.874893-119    0.474673D+00
   0   348    0.428998-123    0.119556-122    0.220547-119    0.474673D+00
   0   349    0.101455-123    0.281614-123    0.557484-120    0.474673D+00
   0   350    0.239684-124    0.665761-124    0.121064-120    0.474673D+00
   0   351    0.557996-125    0.157287-124    0.298900-121    0.474673D+00
   0   352    0.132827-125    0.370951-125    0.639394-122    0.474673D+00
   0   353    0.310877-126    0.867728-126    0.143042-122    0.474673D+00
   0   354    0.719100-127    0.202478-126    0.386608-123    0.474673D+00
   0   355    0.166231-127    0.472294-127    0.877443-124    0.474673D+00
   0   356    0.386440-128    0.109553-127    0.219902-124    0.474673D+00
   0   357    0.914964-129    0.255356-128    0.422055-125    0.474673D+00
   0   358    0.210097-129    0.591191-129    0.110086-125    0.474673D+00
   0   359    0.488305-130    0.137136-129    0.232467-126    0.474673D+00
   0   360    0.113469-130    0.313422-130    0.524615-127    0.474673D+00
   0   361    0.257030-131    0.722816-131    0.139806-127    0.474673D+00
   0   362    0.600468-132    0.165640-131    0.305816-128    0.474673D+00
   0   363    0.137045-132    0.379597-132    0.791616-129    0.474673D+00
   0   364    0.310893-133    0.868229-133    0.172311-129    0.474673D+00
   0   365    0.707489-134    0.197658-133    0.348285-130    0.474673D+00
   0   366    0.162727-134    0.449271-134    0.821915-131    0.474673D+00
   0   367    0.368151-135    0.100972-134    0.198291-131    0.474673D+00
   0   368    0.813312-136    0.227410-135    0.433078-132    0.474673D+00
   0   369    0.182247-136    0.510163-136    0.925807-133    0.474673D+00
   0   370    0.419661-137    0.114833-136    0.195200-133    0.474673D+00
   0   371    0.934530-138    0.257425-137    0.543849-134    0.474673D+00
   0   372    0.209850-138    0.577892-138    0.105171-134    0.474673D+00
   0   373    0.464678-139    0.128509-138    0.267313-135    0.474673D+00
   0   374    0.102545-139    0.282804-139    0.555734-136    0.474673D+00
   0   375    0.223517-140    0.625265-140    0.124131-136    0.474673D+00
   0   376    0.498264-141    0.137848-140    0.252949-137    0.474673D+00
   0   377    0.109201-141    0.303054-141    0.575581-138    0.474673D+00
   0   378    0.240246-142    0.667216-142    0.123571-138    0.474673D+00
   0   379    0.527346-143    0.145491-142    0.282187-139    0.474673D+00
   0   380    0.114089-143    0.317845-143    0.660291-140    0.474673D+00
   0   381    0.247002-144    0.693927-144    0.151113-140    0.474673D+00
   0   382    0.537420-145    0.150608-144    0.309065-141    0.474673D+00
   0   383    0.115312-145    0.326792-145    0.741346-142    0.474673D+00
   0   384    0.250227-146    0.704987-146    0.162067-142    0.474673D+00
   0   385    0.545322-147    0.151927-146    0.283280-143    0.474673D+00
   0   386    0.118141-147    0.326711-147    0.617520-144    0.474673D+00
   0   387    0.252186-148    0.702313-148    0.165671-144    0.474673D+00
   0   388    0.540849-149    0.150271-148    0.318526-145    0.474673D+00
   0   389    0.115316-149    0.319707-149    0.661996-146    0.474673D+00
   0   390    0.242373-150    0.677224-150    0.163245-146    0.474673D+00
   0   391    0.517246-151    0.143625-150    0.334497-147    0.474673D+00
   0   392    0.108444-151    0.302427-151    0.671631-148    0.474673D+00
   0   393    0.230472-152    0.639480-152    0.134846-148    0.474673D+00
   0   394    0.481000-153    0.134178-152    0.310295-149    0.474673D+00
   0   395    0.101375-153    0.281527-153    0.577893-150    0.474673D+00
   0   396    0.214989-154    0.590367-154    0.122124-150    0.474673D+00
   0   397    0.449370-155    0.123122-154    0.254578-151    0.474673D+00