variables =  "IG"  "JG"  "PHI"  "Temp."  "Latent_heat"  "mm"
ZONE  I=  401  J=  101
   0     0    0.100000D+01    0.670564D+00    0.000000D+00    0.355893D+00
   0     1    0.100000D+01    0.670564D+00    0.000000D+00    0.355893D+00
   0     2    0.100000D+01    0.672689D+00    0.000000D+00    0.354405D+00
   0     3    0.100000D+01    0.676895D+00    0.133836D-10    0.351379D+00
   0     4    0.100000D+01    0.683103D+00    0.107069D-09    0.346716D+00
   0     5    0.100000D+01    0.691193D+00    0.187371D-09    0.340258D+00
   0     6    0.100000D+01    0.701009D+00   -0.120453D-08    0.331783D+00
   0     7    0.100000D+01    0.712366D+00    0.180679D-08    0.321002D+00
   0     8    0.100000D+01    0.725054D+00   -0.104526D-07    0.307542D+00
   0     9    0.100000D+01    0.738839D+00    0.103174D-06    0.290953D+00
   0    10    0.100000D+01    0.753474D+00   -0.133542D-06    0.270716D+00
   0    11    0.100000D+01    0.768700D+00    0.983697D-06    0.246288D+00
   0    12    0.100000D+01    0.784253D+00   -0.334595D-05    0.217199D+00
   0    13    0.100000D+01    0.799872D+00    0.229554D-04    0.183235D+00
   0    14    0.100000D+01    0.815300D+00   -0.695981D-04    0.144680D+00
   0    15    0.100000D+01    0.830291D+00   -0.240458D-03    0.102561D+00
   0    16    0.999999D+00    0.844622D+00    0.764760D-03    0.586919D-01
   0    17    0.999996D+00    0.858098D+00   -0.788423D-03    0.153669D-01
   0    18    0.999991D+00    0.870562D+00    0.428074D-02   -0.252281D-01
   0    19    0.999980D+00    0.881911D+00    0.122508D-01   -0.615549D-01
   0    20    0.999965D+00    0.892105D+00   -0.634364D-02   -0.929481D-01
   0    21    0.999950D+00    0.901174D+00    0.450281D-02   -0.119486D+00
   0    22    0.999939D+00    0.909219D+00    0.175680D-01   -0.141725D+00
   0    23    0.999937D+00    0.916386D+00   -0.128300D-01   -0.160427D+00
   0    24    0.999942D+00    0.922840D+00    0.331497D-01   -0.176345D+00
   0    25    0.999948D+00    0.928742D+00    0.132014D-01   -0.190129D+00
   0    26    0.999948D+00    0.934222D+00    0.933021D-02   -0.202275D+00
   0    27    0.999938D+00    0.939374D+00   -0.896966D-02   -0.213138D+00
   0    28    0.999920D+00    0.944271D+00    0.788694D-02   -0.222973D+00
   0    29    0.999896D+00    0.948967D+00    0.171840D-01   -0.231969D+00
   0    30    0.999871D+00    0.953505D+00    0.555252D-01   -0.240277D+00
   0    31    0.999851D+00    0.957955D+00    0.757670D-01   -0.248066D+00
   0    32    0.999842D+00    0.962360D+00    0.468332D-01   -0.255442D+00
   0    33    0.999845D+00    0.966779D+00    0.557206D-01   -0.262524D+00
   0    34    0.999858D+00    0.971252D+00    0.562029D-01   -0.269379D+00
   0    35    0.999871D+00    0.975783D+00   -0.200391D-01   -0.276020D+00
   0    36    0.999883D+00    0.980370D+00   -0.330361D-01   -0.282447D+00
   0    37    0.999889D+00    0.984991D+00    0.255868D-01   -0.288631D+00
   0    38    0.999886D+00    0.989632D+00   -0.312529D-01   -0.294567D+00
   0    39    0.999874D+00    0.994300D+00   -0.420339D-01   -0.300271D+00
   0    40    0.999847D+00    0.999034D+00   -0.560727D-01   -0.305803D+00
   0    41    0.999805D+00    0.100391D+01    0.117536D+00   -0.311242D+00
   0    42    0.999750D+00    0.100903D+01    0.299210D-01   -0.316689D+00
   0    43    0.999672D+00    0.101453D+01   -0.472400D-01   -0.322269D+00
   0    44    0.999571D+00    0.102056D+01    0.195053D+00   -0.328062D+00
   0    45    0.999475D+00    0.102727D+01    0.257586D+00   -0.334150D+00
   0    46    0.999384D+00    0.103477D+01   -0.414404D+00   -0.340539D+00
   0    47    0.999313D+00    0.104315D+01    0.100075D+00   -0.347201D+00
   0    48    0.999319D+00    0.105244D+01   -0.436816D+00   -0.354050D+00
   0    49    0.999366D+00    0.106260D+01   -0.193320D+00   -0.360970D+00
   0    50    0.999450D+00    0.107345D+01   -0.600684D-01   -0.367760D+00
   0    51    0.999548D+00    0.108476D+01    0.172942D+00   -0.374254D+00
   0    52    0.999641D+00    0.109628D+01   -0.547025D-01   -0.380331D+00
   0    53    0.999728D+00    0.110773D+01   -0.107051D-01   -0.385886D+00
   0    54    0.999800D+00    0.111884D+01   -0.590252D-01   -0.390871D+00
   0    55    0.999853D+00    0.112940D+01    0.941105D-01   -0.395267D+00
   0    56    0.999897D+00    0.113921D+01    0.179552D-01   -0.399089D+00
   0    57    0.999929D+00    0.114816D+01   -0.455812D-01   -0.402372D+00
   0    58    0.999951D+00    0.115617D+01    0.152917D-01   -0.405160D+00
   0    59    0.999967D+00    0.116323D+01   -0.801935D-02   -0.407505D+00
   0    60    0.999978D+00    0.116935D+01    0.425578D-02   -0.409459D+00
   0    61    0.999985D+00    0.117458D+01    0.842937D-02   -0.411074D+00
   0    62    0.999991D+00    0.117898D+01    0.111955D-02   -0.412396D+00
   0    63    0.999994D+00    0.118264D+01   -0.985738D-03   -0.413470D+00
   0    64    0.999996D+00    0.118565D+01    0.246427D-02   -0.414335D+00
   0    65    0.999998D+00    0.118808D+01   -0.836584D-04   -0.415026D+00
   0    66    0.999998D+00    0.119004D+01    0.887884D-03   -0.415573D+00
   0    67    0.999999D+00    0.119159D+01   -0.661539D-04   -0.416003D+00
   0    68    0.999999D+00    0.119280D+01   -0.223416D-03   -0.416337D+00
   0    69    0.100000D+01    0.119374D+01   -0.180110D-03   -0.416594D+00
   0    70    0.100000D+01    0.119446D+01    0.102913D-03   -0.416789D+00
   0    71    0.100000D+01    0.119500D+01   -0.100511D-05   -0.416936D+00
   0    72    0.100000D+01    0.119541D+01    0.360858D-04   -0.417045D+00
   0    73    0.100000D+01    0.119570D+01   -0.217293D-04   -0.417124D+00
   0    74    0.100000D+01    0.119590D+01   -0.994552D-05   -0.417178D+00
   0    75    0.100000D+01    0.119603D+01    0.256347D-04   -0.417214D+00
   0    76    0.100000D+01    0.119611D+01   -0.318643D-05   -0.417235D+00
   0    77    0.100000D+01    0.119615D+01    0.187357D-06   -0.417245D+00
   0    78    0.100000D+01    0.119615D+01    0.441139D-05   -0.417245D+00
   0    79    0.100000D+01    0.119612D+01    0.252054D-04   -0.417237D+00
   0    80    0.100000D+01    0.119607D+01    0.332995D-04   -0.417223D+00
   0    81    0.100000D+01    0.119599D+01    0.304000D-04   -0.417204D+00
   0    82    0.100000D+01    0.119591D+01    0.338090D-04   -0.417180D+00
   0    83    0.100000D+01    0.119581D+01    0.157567D-04   -0.417154D+00
   0    84    0.100000D+01    0.119570D+01    0.244312D-04   -0.417124D+00
   0    85    0.100000D+01    0.119559D+01    0.106945D-03   -0.417093D+00
   0    86    0.100000D+01    0.119547D+01    0.792592D-04   -0.417061D+00
   0    87    0.100000D+01    0.119534D+01    0.616676D-04   -0.417028D+00
   0    88    0.100000D+01    0.119522D+01    0.187884D-03   -0.416995D+00
   0    89    0.100000D+01    0.119510D+01    0.187123D-03   -0.416962D+00
   0    90    0.100000D+01    0.119499D+01    0.344698D-03   -0.416931D+00
   0    91    0.100000D+01    0.119488D+01    0.398476D-03   -0.416901D+00
   0    92    0.100000D+01    0.119477D+01    0.477606D-03   -0.416873D+00
   0    93    0.999999D+00    0.119468D+01    0.851444D-04   -0.416848D+00
   0    94    0.999999D+00    0.119459D+01    0.716296D-03   -0.416824D+00
   0    95    0.999999D+00    0.119452D+01    0.102646D-02   -0.416804D+00
   0    96    0.999999D+00    0.119445D+01    0.394484D-03   -0.416785D+00
   0    97    0.999999D+00    0.119439D+01    0.128099D-02   -0.416769D+00
   0    98    0.999998D+00    0.119434D+01    0.136240D-02   -0.416755D+00
   0    99    0.999998D+00    0.119429D+01   -0.457522D-04   -0.416742D+00
   0   100    0.999997D+00    0.119424D+01    0.301559D-02   -0.416729D+00
   0   101    0.999996D+00    0.119420D+01    0.189859D-02   -0.416716D+00
   0   102    0.999996D+00    0.119414D+01    0.364009D-02   -0.416702D+00
   0   103    0.999995D+00    0.119408D+01    0.379421D-02   -0.416686D+00
   0   104    0.999993D+00    0.119401D+01    0.581838D-02   -0.416666D+00
   0   105    0.999991D+00    0.119393D+01    0.588665D-02   -0.416644D+00
   0   106    0.999989D+00    0.119384D+01    0.419157D-03   -0.416619D+00
   0   107    0.999986D+00    0.119374D+01    0.855945D-02   -0.416592D+00
   0   108    0.999983D+00    0.119364D+01    0.658323D-02   -0.416564D+00
   0   109    0.999979D+00    0.119353D+01    0.674483D-02   -0.416535D+00
   0   110    0.999973D+00    0.119343D+01    0.413443D-02   -0.416508D+00
   0   111    0.999966D+00    0.119334D+01    0.120144D-01   -0.416483D+00
   0   112    0.999957D+00    0.119326D+01    0.370179D-01   -0.416462D+00
   0   113    0.999946D+00    0.119320D+01    0.394241D-01   -0.416444D+00
   0   114    0.999933D+00    0.119315D+01    0.573134D-01   -0.416430D+00
   0   115    0.999916D+00    0.119311D+01    0.512177D-01   -0.416419D+00
   0   116    0.999893D+00    0.119306D+01    0.118032D+00   -0.416407D+00
   0   117    0.999865D+00    0.119301D+01    0.100161D+00   -0.416392D+00
   0   118    0.999829D+00    0.119294D+01    0.121042D+00   -0.416374D+00
   0   119    0.999780D+00    0.119286D+01    0.101362D+00   -0.416350D+00
   0   120    0.999720D+00    0.119274D+01    0.906624D-02   -0.416319D+00
   0   121    0.999646D+00    0.119262D+01    0.296953D+00   -0.416285D+00
   0   122    0.999563D+00    0.119247D+01    0.460707D+00   -0.416244D+00
   0   123    0.999445D+00    0.119231D+01    0.343306D+00   -0.416201D+00
   0   124    0.999286D+00    0.119216D+01    0.580063D+00   -0.416157D+00
   0   125    0.999095D+00    0.119200D+01    0.205480D+00   -0.416114D+00
   0   126    0.998826D+00    0.119187D+01    0.121774D+01   -0.416078D+00
   0   127    0.998523D+00    0.119174D+01    0.790937D+00   -0.416043D+00
   0   128    0.998129D+00    0.119159D+01    0.637770D+00   -0.416001D+00
   0   129    0.997646D+00    0.119141D+01    0.120903D+01   -0.415953D+00
   0   130    0.996982D+00    0.119110D+01    0.346761D+01   -0.415861D+00
   0   131    0.996250D+00    0.119058D+01   -0.235204D+00   -0.415723D+00
   0   132    0.995140D+00    0.119000D+01    0.188356D+01   -0.415554D+00
   0   133    0.993752D+00    0.118912D+01    0.431391D+01   -0.415303D+00
   0   134    0.992301D+00    0.118784D+01    0.240888D+01   -0.414949D+00
   0   135    0.990353D+00    0.118624D+01    0.107141D+02   -0.414501D+00
   0   136    0.988085D+00    0.118380D+01    0.287424D+01   -0.413794D+00
   0   137    0.985459D+00    0.118095D+01    0.243508D+01   -0.412975D+00
   0   138    0.982037D+00    0.117725D+01    0.568284D+01   -0.411852D+00
   0   139    0.978032D+00    0.117258D+01    0.120424D+02   -0.410448D+00
   0   140    0.973258D+00    0.116735D+01    0.107693D+01   -0.408761D+00
   0   141    0.968025D+00    0.116100D+01    0.890278D+01   -0.406680D+00
   0   142    0.962522D+00    0.115302D+01    0.268578D+02   -0.404014D+00
   0   143    0.956010D+00    0.114497D+01    0.155203D+02   -0.401199D+00
   0   144    0.948311D+00    0.113540D+01    0.413260D+02   -0.397635D+00
   0   145    0.939398D+00    0.112547D+01   -0.117822D+02   -0.393557D+00
   0   146    0.929823D+00    0.111394D+01    0.183466D+02   -0.388496D+00
   0   147    0.919793D+00    0.110548D+01    0.438413D+02   -0.384766D+00
   0   148    0.911182D+00    0.109498D+01    0.124326D+02   -0.379661D+00
   0   149    0.898472D+00    0.108441D+01   -0.760153D+01   -0.373652D+00
   0   150    0.889699D+00    0.107335D+01    0.761324D+02   -0.367618D+00
   0   151    0.881030D+00    0.106356D+01    0.680819D+02   -0.361504D+00
   0   152    0.871653D+00    0.105246D+01    0.585484D+02   -0.353977D+00
   0   153    0.866329D+00    0.104449D+01    0.388904D+02   -0.348355D+00
   0   154    0.856487D+00    0.103332D+01    0.847416D+02   -0.339345D+00
   0   155    0.847178D+00    0.102289D+01   -0.460061D+01   -0.330349D+00
   0   156    0.840560D+00    0.101295D+01   -0.320675D+02   -0.320614D+00
   0   157    0.829836D+00    0.100182D+01   -0.473652D+02   -0.309478D+00
   0   158    0.820789D+00    0.990483D+00   -0.600035D+02   -0.295082D+00
   0   159    0.808778D+00    0.979288D+00   -0.139321D+02   -0.279999D+00
   0   160    0.798060D+00    0.961863D+00    0.611290D+02   -0.254041D+00
   0   161    0.770957D+00    0.937565D+00    0.321910D+02   -0.209977D+00
   0   162    0.735932D+00    0.904729D+00    0.898371D+02   -0.127699D+00
   0   163    0.668533D+00    0.845017D+00    0.242207D+03    0.585050D-01
   0   164    0.513137D+00    0.715162D+00    0.562825D+03    0.320459D+00
   0   165    0.273253D+00    0.456261D+00    0.542125D+03    0.434473D+00
   0   166    0.111671D+00    0.225595D+00    0.252062D+03    0.461810D+00
   0   167    0.406263D-01    0.935674D-01    0.939668D+02    0.470224D+00
   0   168    0.141208D-01    0.358664D-01    0.373248D+02    0.473087D+00
   0   169    0.478353D-02    0.130042D-01    0.132842D+02    0.474113D+00
   0   170    0.161755D-02    0.456255D-02    0.468899D+01    0.474478D+00
   0   171    0.558287D-03    0.158568D-02    0.147509D+01    0.474605D+00
   0   172    0.192562D-03    0.544835D-03    0.499614D+00    0.474649D+00
   0   173    0.654674D-04    0.187283D-03    0.131147D+00    0.474665D+00
   0   174    0.221943D-04    0.640056D-04    0.685594D-01    0.474670D+00
   0   175    0.748503D-05    0.216820D-04    0.188169D-01    0.474672D+00
   0   176    0.255155D-05    0.737616D-05    0.567697D-02    0.474672D+00
   0   177    0.854502D-06    0.250472D-05    0.270933D-02    0.474672D+00
   0   178    0.284135D-06    0.850146D-06    0.669550D-03    0.474673D+00
   0   179    0.959238D-07    0.288405D-06    0.239661D-03    0.474673D+00
   0   180    0.325928D-07    0.978257D-07    0.946552D-04    0.474673D+00
   0   181    0.113741D-07    0.333768D-07    0.224089D-04    0.474673D+00
   0   182    0.386672D-08    0.113404D-07    0.115898D-04    0.474673D+00
   0   183    0.133139D-08    0.386660D-08    0.365272D-05    0.474673D+00
   0   184    0.443568D-09    0.131189D-08    0.140258D-05    0.474673D+00
   0   185    0.149068D-09    0.445624D-09    0.323894D-06    0.474673D+00
   0   186    0.502894D-10    0.150864D-09    0.135037D-06    0.474673D+00
   0   187    0.171608D-10    0.510322D-10    0.356629D-07    0.474673D+00
   0   188    0.575532D-11    0.172686D-10    0.189423D-07    0.474673D+00
   0   189    0.200298D-11    0.589568D-11    0.366191D-08    0.474673D+00
   0   190    0.688151D-12    0.201130D-11    0.192851D-08    0.474673D+00
   0   191    0.232553D-12    0.680577D-12    0.480848D-09    0.474673D+00
   0   192    0.777444D-13    0.229628D-12    0.225237D-09    0.474673D+00
   0   193    0.262443D-13    0.778446D-13    0.560066D-10    0.474673D+00
   0   194    0.887284D-14    0.263068D-13    0.267072D-10    0.474673D+00
   0   195    0.300316D-14    0.892038D-14    0.657695D-11    0.474673D+00
   0   196    0.102597D-14    0.300112D-14    0.203729D-11    0.474673D+00
   0   197    0.344192D-15    0.101815D-14    0.753421D-12    0.474673D+00
   0   198    0.116533D-15    0.345233D-15    0.350182D-12    0.474673D+00
   0   199    0.399514D-16    0.116947D-15    0.117261D-12    0.474673D+00
   0   200    0.134279D-16    0.396641D-16    0.286370D-13    0.474673D+00
   0   201    0.451217D-17    0.134932D-16    0.121364D-13    0.474673D+00
   0   202    0.153332D-17    0.456916D-17    0.357051D-14    0.474673D+00
   0   203    0.519180D-18    0.155435D-17    0.127523D-14    0.474673D+00
   0   204    0.176736D-18    0.526054D-18    0.461955D-15    0.474673D+00
   0   205    0.602538D-19    0.177959D-18    0.154800D-15    0.474673D+00
   0   206    0.202422D-19    0.601756D-19    0.612754D-16    0.474673D+00
   0   207    0.693803D-20    0.203548D-19    0.176150D-16    0.474673D+00
   0   208    0.235409D-20    0.692893D-20    0.605433D-17    0.474673D+00
   0   209    0.798983D-21    0.235770D-20    0.169745D-17    0.474673D+00
   0   210    0.269664D-21    0.799215D-21    0.550870D-18    0.474673D+00
   0   211    0.917175D-22    0.271127D-21    0.209822D-18    0.474673D+00
   0   212    0.320387D-22    0.928992D-22    0.907786D-19    0.474673D+00
   0   213    0.107281D-22    0.316948D-22    0.242681D-19    0.474673D+00
   0   214    0.365127D-23    0.107238D-22    0.776744D-20    0.474673D+00
   0   215    0.123975D-23    0.361564D-23    0.233474D-20    0.474673D+00
   0   216    0.420158D-24    0.123225D-23    0.938497D-21    0.474673D+00
   0   217    0.144380D-24    0.419566D-24    0.278104D-21    0.474673D+00
   0   218    0.487888D-25    0.142084D-24    0.141477D-21    0.474673D+00
   0   219    0.162404D-25    0.481059D-25    0.341742D-22    0.474673D+00
   0   220    0.546660D-26    0.162470D-25    0.175598D-22    0.474673D+00
   0   221    0.186329D-26    0.549915D-26    0.529671D-23    0.474673D+00
   0   222    0.623257D-27    0.185109D-26    0.162951D-23    0.474673D+00
   0   223    0.211746D-27    0.630803D-27    0.497860D-24    0.474673D+00
   0   224    0.725472D-28    0.214319D-27    0.210407D-24    0.474673D+00
   0   225    0.246172D-28    0.725608D-28    0.555371D-25    0.474673D+00
   0   226    0.824033D-29    0.247198D-28    0.184131D-25    0.474673D+00
   0   227    0.279513D-29    0.833986D-29    0.874603D-26    0.474673D+00
   0   228    0.953609D-30    0.282322D-29    0.215228D-26    0.474673D+00
   0   229    0.324208D-30    0.952295D-30    0.609917D-27    0.474673D+00
   0   230    0.109067D-30    0.323191D-30    0.269868D-27    0.474673D+00
   0   231    0.372607D-31    0.109329D-30    0.801822D-28    0.474673D+00
   0   232    0.124902D-31    0.374381D-31    0.284794D-28    0.474673D+00
   0   233    0.428677D-32    0.127033D-31    0.895604D-29    0.474673D+00
   0   234    0.144994D-32    0.430328D-32    0.383207D-29    0.474673D+00
   0   235    0.490736D-33    0.145550D-32    0.154854D-29    0.474673D+00
   0   236    0.166857D-33    0.492182D-33    0.515913D-30    0.474673D+00
   0   237    0.557915D-34    0.166567D-33    0.167300D-30    0.474673D+00
   0   238    0.194312D-34    0.564984D-34    0.515261D-31    0.474673D+00
   0   239    0.650213D-35    0.191973D-34    0.205968D-31    0.474673D+00
   0   240    0.217813D-35    0.645074D-35    0.515110D-32    0.474673D+00
   0   241    0.744596D-36    0.217901D-35    0.201419D-32    0.474673D+00
   0   242    0.251934D-36    0.739702D-36    0.590385D-33    0.474673D+00
   0   243    0.842099D-37    0.252516D-36    0.269454D-33    0.474673D+00
   0   244    0.288208D-37    0.856613D-37    0.872896D-34    0.474673D+00
   0   245    0.976298D-38    0.291134D-37    0.308859D-34    0.474673D+00
   0   246    0.332551D-38    0.990727D-38    0.994204D-35    0.474673D+00
   0   247    0.114229D-38    0.337642D-38    0.243367D-35    0.474673D+00
   0   248    0.390310D-39    0.115165D-38    0.966685D-36    0.474673D+00
   0   249    0.135341D-39    0.391365D-39    0.233986D-36    0.474673D+00
   0   250    0.450047D-40    0.132949D-39    0.129084D-36    0.474673D+00
   0   251    0.153792D-40    0.453000D-40    0.326596D-37    0.474673D+00
   0   252    0.513214D-41    0.153481D-40    0.133495D-37    0.474673D+00
   0   253    0.173517D-41    0.516648D-41    0.485426D-38    0.474673D+00
   0   254    0.599126D-42    0.175092D-41    0.166376D-38    0.474673D+00
   0   255    0.199210D-42    0.592994D-42    0.579919D-39    0.474673D+00
   0   256    0.676380D-43    0.200871D-42    0.151111D-39    0.474673D+00
   0   257    0.228425D-43    0.683228D-43    0.691884D-40    0.474673D+00
   0   258    0.787880D-44    0.232427D-43    0.218301D-40    0.474673D+00
   0   259    0.266361D-44    0.789294D-44    0.787326D-41    0.474673D+00
   0   260    0.903174D-45    0.267452D-44    0.185442D-41    0.474673D+00
   0   261    0.306516D-45    0.908258D-45    0.729867D-42    0.474673D+00
   0   262    0.103302D-45    0.307223D-45    0.289297D-42    0.474673D+00
   0   263    0.350529D-46    0.103977D-45    0.718757D-43    0.474673D+00
   0   264    0.119032D-46    0.352194D-46    0.313629D-43    0.474673D+00
   0   265    0.408551D-47    0.120247D-46    0.122997D-43    0.474673D+00
   0   266    0.138699D-47    0.409174D-47    0.268940D-44    0.474673D+00
   0   267    0.473589D-48    0.138951D-47    0.119704D-44    0.474673D+00
   0   268    0.158852D-48    0.470835D-48    0.399365D-45    0.474673D+00
   0   269    0.539446D-49    0.159353D-48    0.105181D-45    0.474673D+00
   0   270    0.184350D-49    0.542176D-49    0.559772D-46    0.474673D+00
   0   271    0.624694D-50    0.184681D-49    0.168724D-46    0.474673D+00
   0   272    0.211182D-50    0.622716D-50    0.658695D-47    0.474673D+00
   0   273    0.716564D-51    0.211191D-50    0.163136D-47    0.474673D+00
   0   274    0.241934D-51    0.717522D-51    0.641956D-48    0.474673D+00
   0   275    0.813847D-52    0.243081D-51    0.214277D-48    0.474673D+00
   0   276    0.280678D-52    0.826855D-52    0.796882D-49    0.474673D+00
   0   277    0.943040D-53    0.280482D-52    0.244699D-49    0.474673D+00
   0   278    0.317675D-53    0.955787D-53    0.103857D-49    0.474673D+00
   0   279    0.109242D-53    0.323492D-53    0.216487D-50    0.474673D+00
   0   280    0.371372D-54    0.110086D-53    0.982336D-51    0.474673D+00
   0   281    0.127843D-54    0.374466D-54    0.261457D-51    0.474673D+00
   0   282    0.429916D-55    0.126826D-54    0.124873D-51    0.474673D+00
   0   283    0.144455D-55    0.428236D-55    0.342265D-52    0.474673D+00
   0   284    0.494210D-56    0.146611D-55    0.128976D-52    0.474673D+00
   0   285    0.168723D-56    0.497759D-56    0.343997D-53    0.474673D+00
   0   286    0.567972D-57    0.167828D-56    0.144720D-53    0.474673D+00
   0   287    0.191024D-57    0.567236D-57    0.535011D-54    0.474673D+00
   0   288    0.655454D-58    0.192537D-57    0.181460D-54    0.474673D+00
   0   289    0.219988D-58    0.653678D-58    0.518274D-55    0.474673D+00
   0   290    0.745564D-59    0.221514D-58    0.162517D-55    0.474673D+00
   0   291    0.250881D-59    0.748501D-59    0.518131D-56    0.474673D+00
   0   292    0.863916D-60    0.253723D-59    0.200503D-56    0.474673D+00
   0   293    0.288030D-60    0.865498D-60    0.930412D-57    0.474673D+00
   0   294    0.987404D-61    0.292764D-60    0.300225D-57    0.474673D+00
   0   295    0.333967D-61    0.990488D-61    0.870879D-58    0.474673D+00
   0   296    0.113373D-61    0.335826D-61    0.270185D-58    0.474673D+00
   0   297    0.384023D-62    0.114040D-61    0.942920D-59    0.474673D+00
   0   298    0.129218D-62    0.387934D-62    0.397167D-59    0.474673D+00
   0   299    0.442102D-63    0.131470D-62    0.116978D-59    0.474673D+00
   0   300    0.153305D-63    0.448088D-63    0.420763D-60    0.474673D+00
   0   301    0.521686D-64    0.153199D-63    0.107121D-60    0.474673D+00
   0   302    0.176745D-64    0.521688D-64    0.500064D-61    0.474673D+00
   0   303    0.599450D-65    0.176981D-64    0.176105D-61    0.474673D+00
   0   304    0.203446D-65    0.599521D-65    0.444584D-62    0.474673D+00
   0   305    0.680883D-66    0.203207D-65    0.163354D-62    0.474673D+00
   0   306    0.234139D-66    0.690582D-66    0.433374D-63    0.474673D+00
   0   307    0.790723D-67    0.236538D-66    0.176916D-63    0.474673D+00
   0   308    0.269008D-67    0.802438D-67    0.620771D-64    0.474673D+00
   0   309    0.910835D-68    0.271419D-67    0.192657D-64    0.474673D+00
   0   310    0.314436D-68    0.922587D-68    0.856429D-65    0.474673D+00
   0   311    0.105765D-68    0.314251D-68    0.337889D-65    0.474673D+00
   0   312    0.360168D-69    0.107056D-68    0.111643D-65    0.474673D+00
   0   313    0.123521D-69    0.366675D-69    0.309051D-66    0.474673D+00
   0   314    0.413041D-70    0.124116D-69    0.123652D-66    0.474673D+00
   0   315    0.140469D-70    0.420487D-70    0.329400D-67    0.474673D+00
   0   316    0.480331D-71    0.142680D-70    0.104039D-67    0.474673D+00
   0   317    0.163195D-71    0.485090D-71    0.369751D-68    0.474673D+00
   0   318    0.557454D-72    0.164415D-71    0.119387D-68    0.474673D+00
   0   319    0.186546D-72    0.554757D-72    0.525985D-69    0.474673D+00
   0   320    0.629794D-73    0.188605D-72    0.177089D-69    0.474673D+00
   0   321    0.214484D-73    0.637375D-73    0.584342D-70    0.474673D+00
   0   322    0.727938D-74    0.217689D-73    0.199015D-70    0.474673D+00
   0   323    0.247093D-74    0.739036D-74    0.550779D-71    0.474673D+00
   0   324    0.845785D-75    0.251059D-74    0.220899D-71    0.474673D+00
   0   325    0.286867D-75    0.851516D-75    0.650603D-72    0.474673D+00
   0   326    0.958046D-76    0.289361D-75    0.287482D-72    0.474673D+00
   0   327    0.328654D-76    0.980872D-76    0.744828D-73    0.474673D+00
   0   328    0.111334D-76    0.331164D-76    0.335331D-73    0.474673D+00
   0   329    0.379296D-77    0.112323D-76    0.940290D-74    0.474673D+00
   0   330    0.128092D-77    0.380151D-77    0.275358D-74    0.474673D+00
   0   331    0.433215D-78    0.128493D-77    0.112169D-74    0.474673D+00
   0   332    0.148842D-78    0.434821D-78    0.398530D-75    0.474673D+00
   0   333    0.506601D-79    0.147754D-78    0.146557D-75    0.474673D+00
   0   334    0.171343D-79    0.503559D-79    0.432048D-76    0.474673D+00
   0   335    0.577432D-80    0.172029D-79    0.159468D-76    0.474673D+00
   0   336    0.197117D-80    0.578098D-80    0.452440D-77    0.474673D+00
   0   337    0.650889D-81    0.194964D-80    0.178916D-77    0.474673D+00
   0   338    0.221655D-81    0.657069D-81    0.429778D-78    0.474673D+00
   0   339    0.758285D-82    0.224036D-81    0.224509D-78    0.474673D+00
   0   340    0.259939D-82    0.757258D-82    0.564295D-79    0.474673D+00
   0   341    0.871627D-83    0.257194D-82    0.221911D-79    0.474673D+00
   0   342    0.298590D-83    0.869444D-83    0.856998D-80    0.474673D+00
   0   343    0.993826D-84    0.293086D-83    0.311868D-80    0.474673D+00
   0   344    0.333865D-84    0.985979D-84    0.805183D-81    0.474673D+00
   0   345    0.111768D-84    0.330195D-84    0.308627D-81    0.474673D+00
   0   346    0.374696D-85    0.111199D-84    0.115117D-81    0.474673D+00
   0   347    0.126305D-85    0.374297D-85    0.273196D-82    0.474673D+00
   0   348    0.423499D-86    0.125942D-85    0.113542D-82    0.474673D+00
   0   349    0.143491D-86    0.426331D-86    0.372461D-83    0.474673D+00
   0   350    0.482689D-87    0.143500D-86    0.143127D-83    0.474673D+00
   0   351    0.162785D-87    0.481275D-87    0.357073D-84    0.474673D+00
   0   352    0.548529D-88    0.161314D-87    0.145235D-84    0.474673D+00
   0   353    0.184202D-88    0.539671D-88    0.503144D-85    0.474673D+00
   0   354    0.607820D-89    0.181312D-88    0.145122D-85    0.474673D+00
   0   355    0.202416D-89    0.601105D-89    0.627717D-86    0.474673D+00
   0   356    0.681824D-90    0.202258D-89    0.192386D-86    0.474673D+00
   0   357    0.227479D-90    0.676387D-90    0.544524D-87    0.474673D+00
   0   358    0.757768D-91    0.224904D-90    0.183416D-87    0.474673D+00
   0   359    0.255707D-91    0.752394D-91    0.557593D-88    0.474673D+00
   0   360    0.849672D-92    0.252113D-91    0.181511D-88    0.474673D+00
   0   361    0.283532D-92    0.839498D-92    0.870504D-89    0.474673D+00
   0   362    0.941543D-93    0.278216D-92    0.202269D-89    0.474673D+00
   0   363    0.318559D-93    0.927716D-93    0.764525D-90    0.474673D+00
   0   364    0.105053D-93    0.307466D-93    0.338071D-90    0.474673D+00
   0   365    0.346650D-94    0.101681D-93    0.870503D-91    0.474673D+00
   0   366    0.113179D-94    0.333620D-94    0.311395D-91    0.474673D+00
   0   367    0.376054D-95    0.110019D-94    0.860483D-92    0.474673D+00
   0   368    0.124496D-95    0.362920D-95    0.377286D-92    0.474673D+00
   0   369    0.405872D-96    0.119611D-95    0.104399D-92    0.474673D+00
   0   370    0.133219D-96    0.393634D-96    0.331672D-93    0.474673D+00
   0   371    0.444023D-97    0.129781D-96    0.124360D-93    0.474673D+00
   0   372    0.145686D-97    0.427566D-97    0.443271D-94    0.474673D+00
   0   373    0.470741D-98    0.138665D-97    0.132605D-94    0.474673D+00
   0   374    0.155324D-98    0.458726D-98    0.509727D-95    0.474673D+00
   0   375    0.514912D-99    0.150270D-98    0.143026D-95    0.474673D+00
   0   376    0.170079D-99    0.494437D-99    0.471621D-96    0.474673D+00
   0   377    0.549467-100    0.161174D-99    0.162334D-96    0.474673D+00
   0   378    0.176769-100    0.523841-100    0.582506D-97    0.474673D+00
   0   379    0.582552-101    0.169576-100    0.120980D-97    0.474673D+00
   0   380    0.188088-101    0.552010-101    0.588348D-98    0.474673D+00
   0   381    0.608558-102    0.178775-101    0.153909D-98    0.474673D+00
   0   382    0.198923-102    0.582802-102    0.537593D-99    0.474673D+00
   0   383    0.645000-103    0.189100-102    0.198641D-99    0.474673D+00
   0   384    0.209197-103    0.608679-103    0.539922-100    0.474673D+00
   0   385    0.667503-104    0.195794-103    0.205632-100    0.474673D+00
   0   386    0.216302-104    0.625485-104    0.604259-101    0.474673D+00
   0   387    0.698245-105    0.201669-104    0.223022-101    0.474673D+00
   0   388    0.221920-105    0.642186-105    0.607134-102    0.474673D+00
   0   389    0.704882-106    0.204628-105    0.215906-102    0.474673D+00
   0   390    0.225446-106    0.655115-106    0.720980-103    0.474673D+00
   0   391    0.714944-107    0.208212-106    0.200843-103    0.474673D+00
   0   392    0.230949-107    0.664619-107    0.602097-104    0.474673D+00
   0   393    0.724657-108    0.210908-107    0.195898-104    0.474673D+00
   0   394    0.231178-108    0.664315-108    0.650861-105    0.474673D+00
   0   395    0.736163-109    0.210868-108    0.250762-105    0.474673D+00
   0   396    0.228113-109    0.665619-109    0.806093-106    0.474673D+00
   0   397    0.718247-110    0.209966-109    0.241237-106    0.474673D+00