variables =  "IG"  "JG"  "PHI"  "Temp."  "Latent_heat"  "mm"
ZONE  I=  401  J=  101
   0     0    0.100000D+01    0.690691D+00    0.000000D+00    0.340671D+00
   0     1    0.100000D+01    0.690691D+00    0.000000D+00    0.340671D+00
   0     2    0.100000D+01    0.692459D+00    0.000000D+00    0.339205D+00
   0     3    0.100000D+01    0.695962D+00    0.133836D-10    0.336232D+00
   0     4    0.100000D+01    0.701139D+00   -0.267673D-10    0.331666D+00
   0     5    0.100000D+01    0.707899D+00   -0.240905D-09    0.325376D+00
   0     6    0.100000D+01    0.716123D+00    0.254289D-09    0.317181D+00
   0     7    0.100000D+01    0.725669D+00    0.485826D-08    0.306849D+00
   0     8    0.100000D+01    0.736369D+00   -0.125003D-07    0.294091D+00
   0     9    0.100000D+01    0.748042D+00    0.681227D-07    0.278572D+00
   0    10    0.100000D+01    0.760489D+00   -0.246085D-06    0.259924D+00
   0    11    0.100000D+01    0.773496D+00   -0.878528D-06    0.237792D+00
   0    12    0.100000D+01    0.786846D+00    0.767792D-06    0.211907D+00
   0    13    0.100000D+01    0.800313D+00   -0.437412D-05    0.182206D+00
   0    14    0.100000D+01    0.813671D+00   -0.158808D-04    0.148991D+00
   0    15    0.100000D+01    0.826697D+00   -0.439974D-04    0.113053D+00
   0    16    0.999999D+00    0.839180D+00    0.725811D-04    0.757032D-01
   0    17    0.999998D+00    0.850926D+00    0.166349D-02    0.385989D-01
   0    18    0.999995D+00    0.861771D+00    0.581625D-03    0.340400D-02
   0    19    0.999989D+00    0.871596D+00   -0.149656D-02   -0.285726D-01
   0    20    0.999979D+00    0.880342D+00    0.894609D-03   -0.565975D-01
   0    21    0.999969D+00    0.888016D+00    0.978321D-02   -0.805276D-01
   0    22    0.999961D+00    0.894702D+00    0.252606D-01   -0.100690D+00
   0    23    0.999959D+00    0.900543D+00    0.270984D-01   -0.117680D+00
   0    24    0.999961D+00    0.905712D+00    0.100371D-01   -0.132183D+00
   0    25    0.999965D+00    0.910385D+00    0.202155D-01   -0.144837D+00
   0    26    0.999968D+00    0.914708D+00    0.149714D-01   -0.156142D+00
   0    27    0.999964D+00    0.918786D+00   -0.113612D-01   -0.166448D+00
   0    28    0.999953D+00    0.922688D+00    0.905688D-02   -0.175978D+00
   0    29    0.999938D+00    0.926454D+00   -0.109700D-01   -0.184871D+00
   0    30    0.999922D+00    0.930116D+00    0.116455D-01   -0.193229D+00
   0    31    0.999909D+00    0.933706D+00    0.202779D-01   -0.201158D+00
   0    32    0.999905D+00    0.937264D+00    0.432858D-01   -0.208750D+00
   0    33    0.999906D+00    0.940829D+00    0.691174D-02   -0.216105D+00
   0    34    0.999912D+00    0.944441D+00   -0.214187D-01   -0.223301D+00
   0    35    0.999923D+00    0.948123D+00    0.570883D-02   -0.230382D+00
   0    36    0.999932D+00    0.951888D+00   -0.513814D-04   -0.237357D+00
   0    37    0.999937D+00    0.955730D+00   -0.272568D-01   -0.244213D+00
   0    38    0.999938D+00    0.959656D+00   -0.110573D-01   -0.250952D+00
   0    39    0.999932D+00    0.963682D+00    0.253572D-01   -0.257595D+00
   0    40    0.999918D+00    0.967851D+00   -0.349965D-01   -0.264193D+00
   0    41    0.999890D+00    0.972228D+00    0.697850D-01   -0.270834D+00
   0    42    0.999848D+00    0.976925D+00    0.824364D-01   -0.277645D+00
   0    43    0.999789D+00    0.982065D+00    0.351186D-01   -0.284743D+00
   0    44    0.999713D+00    0.987799D+00    0.111300D+00   -0.292252D+00
   0    45    0.999627D+00    0.994292D+00   -0.126879D+00   -0.300262D+00
   0    46    0.999532D+00    0.100167D+01    0.394412D-02   -0.308773D+00
   0    47    0.999471D+00    0.101007D+01    0.235996D+00   -0.317758D+00
   0    48    0.999437D+00    0.101952D+01   -0.128901D+00   -0.327084D+00
   0    49    0.999441D+00    0.103001D+01   -0.118534D+00   -0.336522D+00
   0    50    0.999494D+00    0.104144D+01    0.101368D+00   -0.345875D+00
   0    51    0.999566D+00    0.105360D+01   -0.170853D-01   -0.354869D+00
   0    52    0.999653D+00    0.106626D+01   -0.109488D+00   -0.363322D+00
   0    53    0.999733D+00    0.107913D+01    0.191006D-01   -0.371088D+00
   0    54    0.999797D+00    0.109190D+01   -0.908465D-01   -0.378080D+00
   0    55    0.999849D+00    0.110432D+01   -0.189953D-01   -0.384277D+00
   0    56    0.999892D+00    0.111615D+01   -0.320436D-01   -0.389696D+00
   0    57    0.999925D+00    0.112721D+01   -0.292604D-01   -0.394381D+00
   0    58    0.999949D+00    0.113738D+01    0.371127D-02   -0.398395D+00
   0    59    0.999965D+00    0.114659D+01   -0.538659D-02   -0.401808D+00
   0    60    0.999977D+00    0.115480D+01    0.746811D-02   -0.404691D+00
   0    61    0.999985D+00    0.116202D+01    0.648184D-02   -0.407111D+00
   0    62    0.999990D+00    0.116831D+01   -0.427865D-02   -0.409132D+00
   0    63    0.999993D+00    0.117371D+01   -0.158993D-02   -0.410809D+00
   0    64    0.999996D+00    0.117830D+01    0.958020D-03   -0.412195D+00
   0    65    0.999997D+00    0.118217D+01    0.476508D-03   -0.413332D+00
   0    66    0.999998D+00    0.118538D+01   -0.419815D-03   -0.414260D+00
   0    67    0.999999D+00    0.118804D+01    0.247695D-03   -0.415014D+00
   0    68    0.999999D+00    0.119021D+01   -0.182192D-03   -0.415621D+00
   0    69    0.100000D+01    0.119197D+01    0.160377D-03   -0.416108D+00
   0    70    0.100000D+01    0.119338D+01   -0.167473D-03   -0.416494D+00
   0    71    0.100000D+01    0.119450D+01   -0.706653D-04   -0.416799D+00
   0    72    0.100000D+01    0.119538D+01    0.374685D-04   -0.417038D+00
   0    73    0.100000D+01    0.119606D+01    0.209257D-04   -0.417222D+00
   0    74    0.100000D+01    0.119658D+01   -0.194160D-04   -0.417363D+00
   0    75    0.100000D+01    0.119698D+01    0.259716D-05   -0.417469D+00
   0    76    0.100000D+01    0.119727D+01   -0.439935D-05   -0.417547D+00
   0    77    0.100000D+01    0.119748D+01   -0.769518D-06   -0.417602D+00
   0    78    0.100000D+01    0.119762D+01    0.708302D-06   -0.417640D+00
   0    79    0.100000D+01    0.119771D+01   -0.145793D-05   -0.417664D+00
   0    80    0.100000D+01    0.119776D+01    0.776277D-06   -0.417676D+00
   0    81    0.100000D+01    0.119777D+01   -0.494177D-06   -0.417680D+00
   0    82    0.100000D+01    0.119776D+01    0.559195D-06   -0.417677D+00
   0    83    0.100000D+01    0.119773D+01    0.874352D-07   -0.417669D+00
   0    84    0.100000D+01    0.119768D+01    0.109312D-05   -0.417656D+00
   0    85    0.100000D+01    0.119762D+01    0.302189D-06   -0.417640D+00
   0    86    0.100000D+01    0.119755D+01    0.140235D-05   -0.417623D+00
   0    87    0.100000D+01    0.119748D+01    0.114473D-05   -0.417604D+00
   0    88    0.100000D+01    0.119741D+01    0.174650D-05   -0.417584D+00
   0    89    0.100000D+01    0.119734D+01    0.119162D-05   -0.417564D+00
   0    90    0.100000D+01    0.119726D+01    0.203573D-05   -0.417544D+00
   0    91    0.100000D+01    0.119719D+01    0.440669D-06   -0.417525D+00
   0    92    0.100000D+01    0.119713D+01    0.309763D-05   -0.417508D+00
   0    93    0.100000D+01    0.119706D+01    0.344454D-05   -0.417491D+00
   0    94    0.100000D+01    0.119701D+01    0.379509D-05   -0.417476D+00
   0    95    0.100000D+01    0.119696D+01    0.118264D-04   -0.417462D+00
   0    96    0.100000D+01    0.119691D+01    0.108119D-04   -0.417450D+00
   0    97    0.100000D+01    0.119687D+01    0.164113D-04   -0.417438D+00
   0    98    0.100000D+01    0.119683D+01    0.117681D-04   -0.417427D+00
   0    99    0.100000D+01    0.119679D+01    0.617159D-06   -0.417417D+00
   0   100    0.100000D+01    0.119675D+01    0.201461D-04   -0.417407D+00
   0   101    0.100000D+01    0.119671D+01    0.199998D-04   -0.417396D+00
   0   102    0.100000D+01    0.119667D+01    0.500414D-04   -0.417385D+00
   0   103    0.100000D+01    0.119662D+01    0.541469D-05   -0.417372D+00
   0   104    0.100000D+01    0.119657D+01    0.287505D-04   -0.417358D+00
   0   105    0.100000D+01    0.119651D+01    0.215454D-04   -0.417343D+00
   0   106    0.100000D+01    0.119645D+01    0.201725D-04   -0.417327D+00
   0   107    0.100000D+01    0.119639D+01   -0.459467D-05   -0.417310D+00
   0   108    0.100000D+01    0.119632D+01    0.836069D-04   -0.417292D+00
   0   109    0.100000D+01    0.119625D+01    0.249925D-03   -0.417273D+00
   0   110    0.100000D+01    0.119618D+01    0.256516D-03   -0.417255D+00
   0   111    0.100000D+01    0.119611D+01    0.188086D-03   -0.417236D+00
   0   112    0.100000D+01    0.119604D+01    0.353185D-03   -0.417217D+00
   0   113    0.999999D+00    0.119598D+01    0.493648D-03   -0.417199D+00
   0   114    0.999999D+00    0.119591D+01    0.302593D-03   -0.417181D+00
   0   115    0.999999D+00    0.119584D+01    0.147819D-03   -0.417163D+00
   0   116    0.999999D+00    0.119578D+01    0.118704D-02   -0.417145D+00
   0   117    0.999998D+00    0.119571D+01    0.886502D-03   -0.417127D+00
   0   118    0.999998D+00    0.119564D+01    0.354640D-03   -0.417109D+00
   0   119    0.999998D+00    0.119558D+01   -0.125706D-03   -0.417092D+00
   0   120    0.999997D+00    0.119552D+01    0.260164D-02   -0.417076D+00
   0   121    0.999996D+00    0.119547D+01    0.103965D-02   -0.417061D+00
   0   122    0.999995D+00    0.119542D+01    0.279776D-03   -0.417048D+00
   0   123    0.999994D+00    0.119539D+01    0.529787D-02   -0.417039D+00
   0   124    0.999992D+00    0.119537D+01    0.516830D-02   -0.417034D+00
   0   125    0.999990D+00    0.119536D+01    0.108361D-01   -0.417032D+00
   0   126    0.999987D+00    0.119537D+01    0.106288D-01   -0.417035D+00
   0   127    0.999983D+00    0.119539D+01    0.141622D-01   -0.417041D+00
   0   128    0.999979D+00    0.119542D+01   -0.986714D-03   -0.417049D+00
   0   129    0.999974D+00    0.119545D+01    0.171208D-01   -0.417058D+00
   0   130    0.999967D+00    0.119548D+01    0.101244D-01   -0.417066D+00
   0   131    0.999958D+00    0.119550D+01    0.469651D-01   -0.417071D+00
   0   132    0.999947D+00    0.119551D+01    0.386188D-01   -0.417072D+00
   0   133    0.999934D+00    0.119549D+01    0.190811D-01   -0.417067D+00
   0   134    0.999916D+00    0.119544D+01    0.114340D-01   -0.417054D+00
   0   135    0.999893D+00    0.119535D+01    0.971038D-01   -0.417031D+00
   0   136    0.999865D+00    0.119523D+01    0.133640D+00   -0.416997D+00
   0   137    0.999831D+00    0.119506D+01    0.842665D-01   -0.416952D+00
   0   138    0.999783D+00    0.119485D+01    0.591543D-01   -0.416895D+00
   0   139    0.999725D+00    0.119461D+01    0.951965D-01   -0.416829D+00
   0   140    0.999653D+00    0.119433D+01    0.375688D+00   -0.416754D+00
   0   141    0.999561D+00    0.119404D+01    0.381813D+00   -0.416675D+00
   0   142    0.999444D+00    0.119376D+01    0.403631D-01   -0.416598D+00
   0   143    0.999285D+00    0.119348D+01    0.378958D+00   -0.416520D+00
   0   144    0.999100D+00    0.119326D+01    0.691194D+00   -0.416461D+00
   0   145    0.998856D+00    0.119305D+01    0.221748D+00   -0.416404D+00
   0   146    0.998537D+00    0.119284D+01    0.204693D+00   -0.416344D+00
   0   147    0.998143D+00    0.119263D+01    0.599080D+00   -0.416288D+00
   0   148    0.997616D+00    0.119232D+01    0.126052D+01   -0.416199D+00
   0   149    0.996934D+00    0.119183D+01    0.171812D+01   -0.416067D+00
   0   150    0.996187D+00    0.119124D+01    0.264507D+01   -0.415898D+00
   0   151    0.995102D+00    0.119028D+01    0.499728D+00   -0.415641D+00
   0   152    0.994067D+00    0.118903D+01    0.170136D+01   -0.415278D+00
   0   153    0.992422D+00    0.118727D+01    0.195424D+01   -0.414788D+00
   0   154    0.990537D+00    0.118519D+01    0.503557D+01   -0.414184D+00
   0   155    0.988358D+00    0.118215D+01    0.101906D+02   -0.413318D+00
   0   156    0.985330D+00    0.117863D+01    0.124637D+02   -0.412292D+00
   0   157    0.981487D+00    0.117465D+01    0.638478D+01   -0.411053D+00
   0   158    0.977220D+00    0.116940D+01    0.740457D+01   -0.409393D+00
   0   159    0.972640D+00    0.116377D+01   -0.158500D+01   -0.407697D+00
   0   160    0.967182D+00    0.115722D+01    0.100415D+02   -0.405516D+00
   0   161    0.960769D+00    0.114965D+01    0.106910D+02   -0.402844D+00
   0   162    0.953474D+00    0.114265D+01    0.228618D+02   -0.400310D+00
   0   163    0.946643D+00    0.113386D+01    0.244767D+02   -0.397065D+00
   0   164    0.939252D+00    0.112510D+01   -0.624315D+01   -0.393401D+00
   0   165    0.930572D+00    0.111507D+01   -0.443622D+01   -0.389008D+00
   0   166    0.923458D+00    0.110416D+01   -0.151055D+02   -0.384038D+00
   0   167    0.914956D+00    0.109426D+01    0.298044D+02   -0.379416D+00
   0   168    0.908451D+00    0.108387D+01    0.160658D+02   -0.373643D+00
   0   169    0.899729D+00    0.107353D+01    0.232828D+02   -0.367367D+00
   0   170    0.893452D+00    0.106417D+01    0.322113D+02   -0.361893D+00
   0   171    0.886735D+00    0.105606D+01   -0.363341D+02   -0.356498D+00
   0   172    0.877994D+00    0.104578D+01   -0.247087D+02   -0.349255D+00
   0   173    0.869074D+00    0.103825D+01    0.862653D+02   -0.343294D+00
   0   174    0.861786D+00    0.102917D+01    0.654326D+02   -0.335470D+00
   0   175    0.849671D+00    0.101803D+01    0.955769D+02   -0.325950D+00
   0   176    0.839795D+00    0.100836D+01    0.313738D+02   -0.315013D+00
   0   177    0.826484D+00    0.996498D+00    0.545186D+02   -0.301691D+00
   0   178    0.813611D+00    0.982440D+00    0.962796D+02   -0.283964D+00
   0   179    0.796028D+00    0.967888D+00    0.912977D+00   -0.263966D+00
   0   180    0.780288D+00    0.947158D+00   -0.197732D+02   -0.226910D+00
   0   181    0.752466D+00    0.916172D+00    0.146577D+03   -0.160800D+00
   0   182    0.700194D+00    0.866817D+00    0.138133D+03   -0.499207D-02
   0   183    0.572182D+00    0.763305D+00    0.351963D+03    0.262481D+00
   0   184    0.341189D+00    0.531631D+00    0.440804D+03    0.418154D+00
   0   185    0.146652D+00    0.277579D+00    0.279669D+03    0.457516D+00
   0   186    0.548607D-01    0.120865D+00    0.131285D+03    0.468741D+00
   0   187    0.191510D-01    0.470416D-01    0.438298D+02    0.472562D+00
   0   188    0.654322D-02    0.172191D-01    0.170388D+02    0.473930D+00
   0   189    0.221673D-02    0.608016D-02    0.556232D+01    0.474414D+00
   0   190    0.748314D-03    0.211265D-02    0.167978D+01    0.474583D+00
   0   191    0.252106D-03    0.726860D-03    0.607434D+00    0.474642D+00
   0   192    0.858458D-04    0.249413D-03    0.250194D+00    0.474662D+00
   0   193    0.290560D-04    0.851283D-04    0.639810D-01    0.474669D+00
   0   194    0.980035D-05    0.289315D-04    0.297584D-01    0.474671D+00
   0   195    0.336194D-05    0.985452D-05    0.726540D-02    0.474672D+00
   0   196    0.114503D-05    0.334755D-05    0.247875D-02    0.474672D+00
   0   197    0.391533D-06    0.113335D-05    0.102776D-02    0.474673D+00
   0   198    0.130846D-06    0.384323D-06    0.297169D-03    0.474673D+00
   0   199    0.444483D-07    0.130891D-06    0.114276D-03    0.474673D+00
   0   200    0.153656D-07    0.443428D-07    0.315313D-04    0.474673D+00
   0   201    0.513877D-08    0.150819D-07    0.126592D-04    0.474673D+00
   0   202    0.174903D-08    0.511314D-08    0.412575D-05    0.474673D+00
   0   203    0.584408D-09    0.173366D-08    0.157243D-05    0.474673D+00
   0   204    0.200015D-09    0.587781D-09    0.455430D-06    0.474673D+00
   0   205    0.663718D-10    0.199138D-09    0.173296D-06    0.474673D+00
   0   206    0.226818D-10    0.674011D-10    0.674904D-07    0.474673D+00
   0   207    0.762551D-11    0.227303D-10    0.227340D-07    0.474673D+00
   0   208    0.263113D-11    0.775507D-11    0.554060D-08    0.474673D+00
   0   209    0.887322D-12    0.262677D-11    0.258260D-08    0.474673D+00
   0   210    0.296859D-12    0.892531D-12    0.970025D-09    0.474673D+00
   0   211    0.100818D-12    0.301498D-12    0.213684D-09    0.474673D+00
   0   212    0.345581D-13    0.102318D-12    0.754702D-10    0.474673D+00
   0   213    0.117652D-13    0.348320D-13    0.290359D-10    0.474673D+00
   0   214    0.401141D-14    0.118097D-13    0.947633D-11    0.474673D+00
   0   215    0.135820D-14    0.400782D-14    0.349265D-11    0.474673D+00
   0   216    0.467950D-15    0.136065D-14    0.134230D-11    0.474673D+00
   0   217    0.161297D-15    0.464955D-15    0.291398D-12    0.474673D+00
   0   218    0.539200D-16    0.159048D-15    0.161468D-12    0.474673D+00
   0   219    0.181088D-16    0.542228D-16    0.459065D-13    0.474673D+00
   0   220    0.616645D-17    0.182437D-16    0.159640D-13    0.474673D+00
   0   221    0.210335D-17    0.618963D-17    0.435974D-14    0.474673D+00
   0   222    0.710891D-18    0.208877D-17    0.151089D-14    0.474673D+00
   0   223    0.239925D-18    0.707521D-18    0.475641D-15    0.474673D+00
   0   224    0.802598D-19    0.239938D-18    0.168757D-15    0.474673D+00
   0   225    0.274960D-19    0.814873D-19    0.713886D-16    0.474673D+00
   0   226    0.937335D-20    0.276242D-19    0.245656D-16    0.474673D+00
   0   227    0.320490D-20    0.941452D-20    0.640242D-17    0.474673D+00
   0   228    0.108367D-20    0.316883D-20    0.229551D-17    0.474673D+00
   0   229    0.367879D-21    0.107911D-20    0.827513D-18    0.474673D+00
   0   230    0.125634D-21    0.367682D-21    0.274234D-18    0.474673D+00
   0   231    0.424134D-22    0.124860D-21    0.112903D-18    0.474673D+00
   0   232    0.145291D-22    0.423119D-22    0.348505D-19    0.474673D+00
   0   233    0.486342D-23    0.143126D-22    0.126987D-19    0.474673D+00
   0   234    0.164464D-23    0.484530D-23    0.419653D-20    0.474673D+00
   0   235    0.554241D-24    0.163852D-23    0.159519D-20    0.474673D+00
   0   236    0.188789D-24    0.550989D-24    0.413389D-21    0.474673D+00
   0   237    0.631904D-25    0.186730D-24    0.138459D-21    0.474673D+00
   0   238    0.214742D-25    0.629146D-25    0.439850D-22    0.474673D+00
   0   239    0.727829D-26    0.214522D-25    0.167953D-22    0.474673D+00
   0   240    0.247959D-26    0.731948D-26    0.707735D-23    0.474673D+00
   0   241    0.843536D-27    0.249832D-26    0.261554D-23    0.474673D+00
   0   242    0.285333D-27    0.849137D-27    0.689737D-24    0.474673D+00
   0   243    0.979249D-28    0.288402D-27    0.186479D-24    0.474673D+00
   0   244    0.333381D-28    0.977238D-28    0.978601D-25    0.474673D+00
   0   245    0.112713D-28    0.332032D-28    0.337287D-25    0.474673D+00
   0   246    0.385159D-29    0.113447D-28    0.879975D-26    0.474673D+00
   0   247    0.130277D-29    0.383658D-29    0.339871D-26    0.474673D+00
   0   248    0.441475D-30    0.130702D-29    0.949775D-27    0.474673D+00
   0   249    0.151418D-30    0.443221D-30    0.286208D-27    0.474673D+00
   0   250    0.509475D-31    0.150599D-30    0.121960D-27    0.474673D+00
   0   251    0.172597D-31    0.509980D-31    0.466615D-28    0.474673D+00
   0   252    0.586871D-32    0.173717D-31    0.126624D-28    0.474673D+00
   0   253    0.200112D-32    0.588097D-32    0.393660D-29    0.474673D+00
   0   254    0.683415D-33    0.199503D-32    0.170538D-29    0.474673D+00
   0   255    0.226802D-33    0.678305D-33    0.738298D-30    0.474673D+00
   0   256    0.774144D-34    0.230523D-33    0.236825D-30    0.474673D+00
   0   257    0.261566D-34    0.781026D-34    0.630793D-31    0.474673D+00
   0   258    0.888995D-35    0.264676D-34    0.225737D-31    0.474673D+00
   0   259    0.306242D-35    0.896328D-35    0.738914D-32    0.474673D+00
   0   260    0.997248D-36    0.302501D-35    0.257020D-32    0.474673D+00
   0   261    0.340842D-36    0.102906D-35    0.723798D-33    0.474673D+00
   0   262    0.116545D-36    0.348491D-36    0.235677D-33    0.474673D+00
   0   263    0.400600D-37    0.118592D-36    0.120136D-33    0.474673D+00
   0   264    0.136485D-37    0.402883D-37    0.393018D-34    0.474673D+00
   0   265    0.462879D-38    0.137063D-37    0.989276D-35    0.474673D+00
   0   266    0.156297D-38    0.465669D-38    0.472440D-35    0.474673D+00
   0   267    0.534524D-39    0.157740D-38    0.161174D-35    0.474673D+00
   0   268    0.180262D-39    0.535888D-39    0.446216D-36    0.474673D+00
   0   269    0.615457D-40    0.182038D-39    0.190110D-36    0.474673D+00
   0   270    0.209869D-40    0.619195D-40    0.505928D-37    0.474673D+00
   0   271    0.703934D-41    0.210852D-40    0.180026D-37    0.474673D+00
   0   272    0.241762D-41    0.713541D-41    0.729997D-38    0.474673D+00
   0   273    0.835050D-42    0.241856D-41    0.188602D-38    0.474673D+00
   0   274    0.277294D-42    0.822839D-42    0.867357D-39    0.474673D+00
   0   275    0.945215D-43    0.278643D-42    0.229044D-39    0.474673D+00
   0   276    0.318538D-43    0.942874D-43    0.948492D-40    0.474673D+00
   0   277    0.107953D-43    0.319518D-43    0.254202D-40    0.474673D+00
   0   278    0.371367D-44    0.108488D-43    0.801121D-41    0.474673D+00
   0   279    0.126717D-44    0.367506D-44    0.366567D-41    0.474673D+00
   0   280    0.429943D-45    0.124855D-44    0.946546D-42    0.474673D+00
   0   281    0.145012D-45    0.424731D-45    0.373363D-42    0.474673D+00
   0   282    0.490528D-46    0.144290D-45    0.109895D-42    0.474673D+00
   0   283    0.164833D-46    0.487908D-46    0.393594D-43    0.474673D+00
   0   284    0.555462D-47    0.164468D-46    0.156998D-43    0.474673D+00
   0   285    0.186105D-47    0.557770D-47    0.516621D-44    0.474673D+00
   0   286    0.637236D-48    0.189648D-47    0.126468D-44    0.474673D+00
   0   287    0.216553D-48    0.642143D-48    0.625562D-45    0.474673D+00
   0   288    0.727195D-49    0.216818D-48    0.223918D-45    0.474673D+00
   0   289    0.251039D-49    0.738191D-49    0.729630D-46    0.474673D+00
   0   290    0.843293D-50    0.250665D-49    0.259470D-46    0.474673D+00
   0   291    0.285835D-50    0.850631D-50    0.564693D-47    0.474673D+00
   0   292    0.981684D-51    0.291714D-50    0.294299D-47    0.474673D+00
   0   293    0.334985D-51    0.990208D-51    0.817997D-48    0.474673D+00
   0   294    0.112882D-51    0.334373D-51    0.311031D-48    0.474673D+00
   0   295    0.390901D-52    0.115147D-51    0.949225D-49    0.474673D+00
   0   296    0.131759D-52    0.389568D-52    0.328024D-49    0.474673D+00
   0   297    0.439193D-53    0.132516D-52    0.122872D-49    0.474673D+00
   0   298    0.151497D-53    0.449563D-53    0.291268D-50    0.474673D+00
   0   299    0.513848D-54    0.152121D-53    0.113398D-50    0.474673D+00
   0   300    0.173125D-54    0.516239D-54    0.542662D-51    0.474673D+00
   0   301    0.586001D-55    0.174424D-54    0.175757D-51    0.474673D+00
   0   302    0.203072D-55    0.600214D-55    0.604085D-52    0.474673D+00
   0   303    0.679342D-56    0.203582D-55    0.212004D-52    0.474673D+00
   0   304    0.233954D-56    0.691166D-56    0.709707D-53    0.474673D+00
   0   305    0.798137D-57    0.235635D-56    0.177838D-53    0.474673D+00
   0   306    0.270374D-57    0.795015D-57    0.734269D-54    0.474673D+00
   0   307    0.900878D-58    0.268766D-57    0.210792D-54    0.474673D+00
   0   308    0.311111D-58    0.912574D-58    0.694754D-55    0.474673D+00
   0   309    0.104381D-58    0.310528D-58    0.218790D-55    0.474673D+00
   0   310    0.353852D-59    0.105685D-58    0.712642D-56    0.474673D+00
   0   311    0.121794D-59    0.357861D-59    0.286896D-56    0.474673D+00
   0   312    0.415697D-60    0.122723D-59    0.971409D-57    0.474673D+00
   0   313    0.140711D-60    0.415506D-60    0.431663D-57    0.474673D+00
   0   314    0.476560D-61    0.141001D-60    0.931585D-58    0.474673D+00
   0   315    0.160255D-61    0.478806D-61    0.345861D-58    0.474673D+00
   0   316    0.544792D-62    0.161582D-61    0.132885D-58    0.474673D+00
   0   317    0.184038D-62    0.551452D-62    0.457445D-59    0.474673D+00
   0   318    0.632148D-63    0.187494D-62    0.135163D-59    0.474673D+00
   0   319    0.216349D-63    0.636860D-63    0.421796D-60    0.474673D+00
   0   320    0.730229D-64    0.214831D-63    0.154364D-60    0.474673D+00
   0   321    0.247317D-64    0.729581D-64    0.600817D-61    0.474673D+00
   0   322    0.848693D-65    0.249056D-64    0.212496D-61    0.474673D+00
   0   323    0.287576D-65    0.848885D-65    0.563976D-62    0.474673D+00
   0   324    0.969093D-66    0.286547D-65    0.263292D-62    0.474673D+00
   0   325    0.328162D-66    0.974280D-66    0.661339D-63    0.474673D+00
   0   326    0.112795D-66    0.331325D-66    0.217783D-63    0.474673D+00
   0   327    0.383305D-67    0.112474D-66    0.993368D-64    0.474673D+00
   0   328    0.129918D-67    0.380697D-67    0.375800D-64    0.474673D+00
   0   329    0.437855D-68    0.129632D-67    0.947654D-65    0.474673D+00
   0   330    0.146907D-68    0.439304D-68    0.351250D-65    0.474673D+00
   0   331    0.501438D-69    0.148411D-68    0.140996D-65    0.474673D+00
   0   332    0.169609D-69    0.504612D-69    0.509670D-66    0.474673D+00
   0   333    0.577707D-70    0.170675D-69    0.112392D-66    0.474673D+00
   0   334    0.193969D-70    0.578886D-70    0.623620D-67    0.474673D+00
   0   335    0.652279D-71    0.197212D-70    0.171229D-67    0.474673D+00
   0   336    0.224603D-71    0.664600D-71    0.421086D-68    0.474673D+00
   0   337    0.749460D-72    0.224870D-71    0.244233D-68    0.474673D+00
   0   338    0.258374D-72    0.762560D-72    0.568180D-69    0.474673D+00
   0   339    0.860442D-73    0.257151D-72    0.207705D-69    0.474673D+00
   0   340    0.292473D-73    0.868643D-73    0.750912D-70    0.474673D+00
   0   341    0.985466D-74    0.295396D-73    0.233407D-70    0.474673D+00
   0   342    0.342743D-74    0.100494D-73    0.661725D-71    0.474673D+00
   0   343    0.117554D-74    0.345742D-74    0.296989D-71    0.474673D+00
   0   344    0.395633D-75    0.118001D-74    0.842311D-72    0.474673D+00
   0   345    0.136840D-75    0.402127D-75    0.364674D-72    0.474673D+00
   0   346    0.466975D-76    0.136011D-75    0.135483D-72    0.474673D+00
   0   347    0.155593D-76    0.465043D-76    0.507277D-73    0.474673D+00
   0   348    0.532545D-77    0.156974D-76    0.139171D-73    0.474673D+00
   0   349    0.180987D-77    0.532864D-77    0.540156D-74    0.474673D+00
   0   350    0.612725D-78    0.181692D-77    0.138090D-74    0.474673D+00
   0   351    0.210628D-78    0.620245D-78    0.552870D-75    0.474673D+00
   0   352    0.704595D-79    0.209434D-78    0.200233D-75    0.474673D+00
   0   353    0.238735D-79    0.708111D-79    0.602490D-76    0.474673D+00
   0   354    0.810382D-80    0.241603D-79    0.248365D-76    0.474673D+00
   0   355    0.272030D-80    0.818986D-80    0.681777D-77    0.474673D+00
   0   356    0.944833D-81    0.278936D-80    0.249727D-77    0.474673D+00
   0   357    0.322236D-81    0.950801D-81    0.971778D-78    0.474673D+00
   0   358    0.107994D-81    0.322521D-81    0.333023D-78    0.474673D+00
   0   359    0.367999D-82    0.109217D-81    0.101457D-78    0.474673D+00
   0   360    0.125321D-82    0.372783D-82    0.285772D-79    0.474673D+00
   0   361    0.428368D-83    0.126969D-82    0.128348D-79    0.474673D+00
   0   362    0.148581D-83    0.431366D-83    0.377529D-80    0.474673D+00
   0   363    0.501678D-84    0.147657D-83    0.133254D-80    0.474673D+00
   0   364    0.172716D-84    0.501653D-84    0.333629D-81    0.474673D+00
   0   365    0.579924D-85    0.170325D-84    0.176645D-81    0.474673D+00
   0   366    0.194821D-85    0.577080D-85    0.496557D-82    0.474673D+00
   0   367    0.664168D-86    0.195287D-85    0.152038D-82    0.474673D+00
   0   368    0.223446D-86    0.662577D-86    0.669039D-83    0.474673D+00
   0   369    0.761303D-87    0.225460D-86    0.159064D-83    0.474673D+00
   0   370    0.255580D-87    0.762093D-87    0.604139D-84    0.474673D+00
   0   371    0.863913D-88    0.259005D-87    0.277825D-84    0.474673D+00
   0   372    0.293617D-88    0.878297D-88    0.746617D-85    0.474673D+00
   0   373    0.101247D-88    0.298838D-88    0.304742D-85    0.474673D+00
   0   374    0.345045D-89    0.101847D-88    0.703794D-86    0.474673D+00
   0   375    0.117239D-89    0.345149D-89    0.225355D-86    0.474673D+00
   0   376    0.402496D-90    0.117634D-89    0.754426D-87    0.474673D+00
   0   377    0.136938D-90    0.400326D-90    0.300871D-87    0.474673D+00
   0   378    0.469230D-91    0.136151D-90    0.118246D-87    0.474673D+00
   0   379    0.157423D-91    0.459334D-91    0.423016D-88    0.474673D+00
   0   380    0.528404D-92    0.156055D-91    0.128384D-88    0.474673D+00
   0   381    0.178694D-92    0.526945D-92    0.380165D-89    0.474673D+00
   0   382    0.604350D-93    0.178089D-92    0.152365D-89    0.474673D+00
   0   383    0.204292D-93    0.598671D-93    0.464530D-90    0.474673D+00
   0   384    0.684883D-94    0.201822D-93    0.214508D-90    0.474673D+00
   0   385    0.228396D-94    0.683651D-94    0.733536D-91    0.474673D+00
   0   386    0.775615D-95    0.230009D-94    0.234475D-91    0.474673D+00
   0   387    0.260287D-95    0.776262D-95    0.668086D-92    0.474673D+00
   0   388    0.876398D-96    0.259918D-95    0.261238D-92    0.474673D+00
   0   389    0.296499D-96    0.875925D-96    0.646347D-93    0.474673D+00
   0   390    0.999334D-97    0.294052D-96    0.288039D-93    0.474673D+00
   0   391    0.332928D-97    0.989689D-97    0.100960D-93    0.474673D+00
   0   392    0.111664D-97    0.332292D-97    0.287753D-94    0.474673D+00
   0   393    0.373226D-98    0.112080D-97    0.103572D-94    0.474673D+00
   0   394    0.125433D-98    0.376677D-98    0.319293D-95    0.474673D+00
   0   395    0.429142D-99    0.126937D-98    0.127412D-95    0.474673D+00
   0   396    0.144107D-99    0.427252D-99    0.349481D-96    0.474673D+00
   0   397    0.492009-100    0.144103D-99    0.130680D-96    0.474673D+00