variables =  "IG"  "JG"  "PHI"  "Temp."  "Latent_heat"  "mm"
ZONE  I=  401  J=  101
   0     0    0.100000D+01    0.785992D+00    0.000000D+00    0.213672D+00
   0     1    0.100000D+01    0.785992D+00    0.000000D+00    0.213672D+00
   0     2    0.100000D+01    0.786574D+00    0.000000D+00    0.212474D+00
   0     3    0.100000D+01    0.787732D+00    0.000000D+00    0.210073D+00
   0     4    0.100000D+01    0.789452D+00    0.000000D+00    0.206457D+00
   0     5    0.100000D+01    0.791714D+00   -0.133836D-10    0.201609D+00
   0     6    0.100000D+01    0.794491D+00   -0.401509D-10    0.195515D+00
   0     7    0.100000D+01    0.797749D+00   -0.107069D-09    0.188159D+00
   0     8    0.100000D+01    0.801450D+00    0.388125D-09    0.179536D+00
   0     9    0.100000D+01    0.805546D+00   -0.208785D-08    0.169654D+00
   0    10    0.100000D+01    0.809984D+00    0.805694D-08    0.158546D+00
   0    11    0.100000D+01    0.814705D+00    0.646162D-07    0.146275D+00
   0    12    0.100000D+01    0.819642D+00   -0.187612D-06    0.132950D+00
   0    13    0.100000D+01    0.824722D+00   -0.400639D-06    0.118731D+00
   0    14    0.100000D+01    0.829864D+00   -0.591329D-06    0.103840D+00
   0    15    0.100000D+01    0.834982D+00    0.491093D-05    0.885620D-01
   0    16    0.100000D+01    0.839982D+00    0.223308D-04    0.732395D-01
   0    17    0.100000D+01    0.844767D+00    0.169929D-04    0.582609D-01
   0    18    0.100000D+01    0.849238D+00   -0.159132D-03    0.440371D-01
   0    19    0.999999D+00    0.853298D+00   -0.116676D-03    0.309708D-01
   0    20    0.999999D+00    0.856861D+00    0.520920D-03    0.194204D-01
   0    21    0.999997D+00    0.859859D+00   -0.873333D-03    0.966082D-02
   0    22    0.999994D+00    0.862256D+00    0.349629D-02    0.184596D-02
   0    23    0.999989D+00    0.864054D+00    0.268036D-02   -0.401694D-02
   0    24    0.999984D+00    0.865301D+00    0.523492D-02   -0.808207D-02
   0    25    0.999980D+00    0.866088D+00   -0.705560D-02   -0.106487D-01
   0    26    0.999978D+00    0.866535D+00   -0.285989D-02   -0.121060D-01
   0    27    0.999977D+00    0.866771D+00    0.571754D-02   -0.128745D-01
   0    28    0.999977D+00    0.866908D+00   -0.964105D-02   -0.133210D-01
   0    29    0.999979D+00    0.867029D+00   -0.755456D-02   -0.137142D-01
   0    30    0.999980D+00    0.867179D+00   -0.137021D-02   -0.142051D-01
   0    31    0.999981D+00    0.867377D+00    0.949511D-02   -0.148507D-01
   0    32    0.999982D+00    0.867620D+00    0.153711D-02   -0.156393D-01
   0    33    0.999983D+00    0.867897D+00    0.511539D-02   -0.165434D-01
   0    34    0.999984D+00    0.868203D+00   -0.282374D-02   -0.175373D-01
   0    35    0.999986D+00    0.868539D+00   -0.821236D-02   -0.186298D-01
   0    36    0.999988D+00    0.868918D+00    0.673418D-02   -0.198627D-01
   0    37    0.999989D+00    0.869362D+00    0.164159D-02   -0.213059D-01
   0    38    0.999989D+00    0.869903D+00    0.795741D-02   -0.230615D-01
   0    39    0.999989D+00    0.870576D+00    0.134599D-02   -0.252451D-01
   0    40    0.999986D+00    0.871422D+00   -0.187132D-02   -0.279849D-01
   0    41    0.999981D+00    0.872480D+00    0.636418D-02   -0.314084D-01
   0    42    0.999973D+00    0.873792D+00   -0.248282D-02   -0.356444D-01
   0    43    0.999961D+00    0.875406D+00   -0.102044D-01   -0.408379D-01
   0    44    0.999940D+00    0.877373D+00    0.810179D-02   -0.471358D-01
   0    45    0.999912D+00    0.879758D+00   -0.117092D-01   -0.547274D-01
   0    46    0.999871D+00    0.882634D+00    0.342871D-01   -0.637995D-01
   0    47    0.999819D+00    0.886108D+00    0.469916D-01   -0.746298D-01
   0    48    0.999760D+00    0.890294D+00   -0.209861D-01   -0.874553D-01
   0    49    0.999706D+00    0.895333D+00    0.185102D+00   -0.102524D+00
   0    50    0.999668D+00    0.901355D+00   -0.191365D+00   -0.119965D+00
   0    51    0.999653D+00    0.908484D+00    0.948102D-01   -0.139727D+00
   0    52    0.999667D+00    0.916826D+00   -0.138949D+00   -0.161501D+00
   0    53    0.999708D+00    0.926368D+00   -0.182820D+00   -0.184642D+00
   0    54    0.999761D+00    0.937063D+00    0.146985D+00   -0.208304D+00
   0    55    0.999821D+00    0.948794D+00   -0.318924D-01   -0.231611D+00
   0    56    0.999869D+00    0.961367D+00   -0.411575D-01   -0.253777D+00
   0    57    0.999909D+00    0.974569D+00   -0.363524D-01   -0.274241D+00
   0    58    0.999939D+00    0.988187D+00   -0.116782D-01   -0.292718D+00
   0    59    0.999960D+00    0.100199D+01    0.985240D-02   -0.309110D+00
   0    60    0.999974D+00    0.101580D+01   -0.137482D-01   -0.323486D+00
   0    61    0.999983D+00    0.102942D+01    0.476587D-02   -0.336001D+00
   0    62    0.999989D+00    0.104273D+01   -0.180078D-03   -0.346852D+00
   0    63    0.999993D+00    0.105560D+01   -0.525911D-03   -0.356245D+00
   0    64    0.999996D+00    0.106795D+01    0.165761D-02   -0.364374D+00
   0    65    0.999997D+00    0.107972D+01   -0.732086D-03   -0.371418D+00
   0    66    0.999998D+00    0.109087D+01   -0.331882D-03   -0.377529D+00
   0    67    0.999999D+00    0.110136D+01    0.273827D-03   -0.382841D+00
   0    68    0.999999D+00    0.111118D+01   -0.202677D-04   -0.387467D+00
   0    69    0.100000D+01    0.112033D+01    0.586726D-04   -0.391502D+00
   0    70    0.100000D+01    0.112882D+01    0.107233D-03   -0.395028D+00
   0    71    0.100000D+01    0.113666D+01    0.753301D-04   -0.398113D+00
   0    72    0.100000D+01    0.114386D+01    0.160142D-04   -0.400815D+00
   0    73    0.100000D+01    0.115046D+01    0.965799D-05   -0.403184D+00
   0    74    0.100000D+01    0.115648D+01   -0.121360D-04   -0.405261D+00
   0    75    0.100000D+01    0.116194D+01   -0.566217D-05   -0.407082D+00
   0    76    0.100000D+01    0.116689D+01   -0.309578D-05   -0.408679D+00
   0    77    0.100000D+01    0.117134D+01   -0.134586D-05   -0.410079D+00
   0    78    0.100000D+01    0.117535D+01    0.264917D-05   -0.411305D+00
   0    79    0.100000D+01    0.117893D+01   -0.148424D-07   -0.412378D+00
   0    80    0.100000D+01    0.118212D+01    0.297224D-06   -0.413316D+00
   0    81    0.100000D+01    0.118495D+01    0.176115D-06   -0.414135D+00
   0    82    0.100000D+01    0.118745D+01   -0.564254D-07   -0.414848D+00
   0    83    0.100000D+01    0.118966D+01   -0.151770D-06   -0.415468D+00
   0    84    0.100000D+01    0.119160D+01    0.199015D-07   -0.416006D+00
   0    85    0.100000D+01    0.119330D+01    0.279584D-07   -0.416472D+00
   0    86    0.100000D+01    0.119477D+01   -0.535345D-08   -0.416875D+00
   0    87    0.100000D+01    0.119606D+01   -0.229128D-07   -0.417222D+00
   0    88    0.100000D+01    0.119717D+01   -0.100243D-07   -0.417520D+00
   0    89    0.100000D+01    0.119813D+01   -0.896703D-08   -0.417776D+00
   0    90    0.100000D+01    0.119895D+01   -0.610293D-08   -0.417994D+00
   0    91    0.100000D+01    0.119965D+01   -0.323884D-08   -0.418180D+00
   0    92    0.100000D+01    0.120025D+01   -0.133836D-08   -0.418338D+00
   0    93    0.100000D+01    0.120076D+01    0.388125D-09   -0.418472D+00
   0    94    0.100000D+01    0.120119D+01   -0.856552D-09   -0.418585D+00
   0    95    0.100000D+01    0.120155D+01   -0.147220D-09   -0.418680D+00
   0    96    0.100000D+01    0.120186D+01    0.267673D-09   -0.418759D+00
   0    97    0.100000D+01    0.120211D+01   -0.147220D-09   -0.418825D+00
   0    98    0.100000D+01    0.120232D+01   -0.401509D-10   -0.418880D+00
   0    99    0.100000D+01    0.120249D+01    0.401509D-10   -0.418925D+00
   0   100    0.100000D+01    0.120263D+01   -0.669181D-10   -0.418962D+00
   0   101    0.100000D+01    0.120275D+01   -0.267673D-10   -0.418992D+00
   0   102    0.100000D+01    0.120284D+01    0.000000D+00   -0.419016D+00
   0   103    0.100000D+01    0.120292D+01    0.000000D+00   -0.419036D+00
   0   104    0.100000D+01    0.120298D+01    0.000000D+00   -0.419051D+00
   0   105    0.100000D+01    0.120302D+01    0.000000D+00   -0.419063D+00
   0   106    0.100000D+01    0.120306D+01    0.000000D+00   -0.419072D+00
   0   107    0.100000D+01    0.120308D+01    0.000000D+00   -0.419079D+00
   0   108    0.100000D+01    0.120310D+01    0.000000D+00   -0.419084D+00
   0   109    0.100000D+01    0.120312D+01    0.000000D+00   -0.419087D+00
   0   110    0.100000D+01    0.120312D+01    0.000000D+00   -0.419089D+00
   0   111    0.100000D+01    0.120313D+01    0.000000D+00   -0.419090D+00
   0   112    0.100000D+01    0.120313D+01    0.000000D+00   -0.419090D+00
   0   113    0.100000D+01    0.120313D+01    0.000000D+00   -0.419089D+00
   0   114    0.100000D+01    0.120312D+01    0.000000D+00   -0.419088D+00
   0   115    0.100000D+01    0.120311D+01    0.000000D+00   -0.419086D+00
   0   116    0.100000D+01    0.120311D+01    0.000000D+00   -0.419085D+00
   0   117    0.100000D+01    0.120310D+01    0.000000D+00   -0.419082D+00
   0   118    0.100000D+01    0.120309D+01    0.000000D+00   -0.419080D+00
   0   119    0.100000D+01    0.120308D+01    0.000000D+00   -0.419077D+00
   0   120    0.100000D+01    0.120307D+01    0.000000D+00   -0.419075D+00
   0   121    0.100000D+01    0.120306D+01    0.000000D+00   -0.419072D+00
   0   122    0.100000D+01    0.120305D+01    0.000000D+00   -0.419069D+00
   0   123    0.100000D+01    0.120304D+01    0.000000D+00   -0.419066D+00
   0   124    0.100000D+01    0.120303D+01    0.000000D+00   -0.419063D+00
   0   125    0.100000D+01    0.120301D+01    0.000000D+00   -0.419060D+00
   0   126    0.100000D+01    0.120300D+01    0.000000D+00   -0.419057D+00
   0   127    0.100000D+01    0.120299D+01    0.000000D+00   -0.419054D+00
   0   128    0.100000D+01    0.120298D+01    0.000000D+00   -0.419051D+00
   0   129    0.100000D+01    0.120297D+01    0.000000D+00   -0.419048D+00
   0   130    0.100000D+01    0.120295D+01    0.000000D+00   -0.419045D+00
   0   131    0.100000D+01    0.120294D+01    0.000000D+00   -0.419041D+00
   0   132    0.100000D+01    0.120293D+01    0.000000D+00   -0.419038D+00
   0   133    0.100000D+01    0.120292D+01    0.000000D+00   -0.419035D+00
   0   134    0.100000D+01    0.120290D+01    0.000000D+00   -0.419031D+00
   0   135    0.100000D+01    0.120289D+01    0.000000D+00   -0.419028D+00
   0   136    0.100000D+01    0.120288D+01    0.000000D+00   -0.419024D+00
   0   137    0.100000D+01    0.120286D+01    0.000000D+00   -0.419021D+00
   0   138    0.100000D+01    0.120285D+01    0.000000D+00   -0.419017D+00
   0   139    0.100000D+01    0.120284D+01    0.000000D+00   -0.419014D+00
   0   140    0.100000D+01    0.120282D+01    0.000000D+00   -0.419010D+00
   0   141    0.100000D+01    0.120281D+01    0.000000D+00   -0.419007D+00
   0   142    0.100000D+01    0.120279D+01    0.000000D+00   -0.419003D+00
   0   143    0.100000D+01    0.120278D+01    0.000000D+00   -0.419000D+00
   0   144    0.100000D+01    0.120277D+01    0.000000D+00   -0.418996D+00
   0   145    0.100000D+01    0.120275D+01    0.000000D+00   -0.418993D+00
   0   146    0.100000D+01    0.120274D+01    0.000000D+00   -0.418989D+00
   0   147    0.100000D+01    0.120273D+01    0.000000D+00   -0.418986D+00
   0   148    0.100000D+01    0.120272D+01    0.000000D+00   -0.418983D+00
   0   149    0.100000D+01    0.120270D+01    0.000000D+00   -0.418980D+00
   0   150    0.100000D+01    0.120269D+01    0.000000D+00   -0.418976D+00
   0   151    0.100000D+01    0.120268D+01    0.000000D+00   -0.418973D+00
   0   152    0.100000D+01    0.120267D+01    0.000000D+00   -0.418970D+00
   0   153    0.100000D+01    0.120265D+01    0.000000D+00   -0.418967D+00
   0   154    0.100000D+01    0.120264D+01    0.000000D+00   -0.418963D+00
   0   155    0.100000D+01    0.120263D+01    0.000000D+00   -0.418960D+00
   0   156    0.100000D+01    0.120262D+01    0.000000D+00   -0.418957D+00
   0   157    0.100000D+01    0.120260D+01    0.000000D+00   -0.418954D+00
   0   158    0.100000D+01    0.120259D+01    0.000000D+00   -0.418951D+00
   0   159    0.100000D+01    0.120258D+01    0.000000D+00   -0.418947D+00
   0   160    0.100000D+01    0.120257D+01    0.000000D+00   -0.418944D+00
   0   161    0.100000D+01    0.120255D+01    0.000000D+00   -0.418940D+00
   0   162    0.100000D+01    0.120254D+01    0.000000D+00   -0.418937D+00
   0   163    0.100000D+01    0.120252D+01    0.000000D+00   -0.418933D+00
   0   164    0.100000D+01    0.120251D+01    0.000000D+00   -0.418930D+00
   0   165    0.100000D+01    0.120250D+01    0.000000D+00   -0.418926D+00
   0   166    0.100000D+01    0.120248D+01    0.000000D+00   -0.418922D+00
   0   167    0.100000D+01    0.120247D+01    0.000000D+00   -0.418918D+00
   0   168    0.100000D+01    0.120245D+01    0.000000D+00   -0.418914D+00
   0   169    0.100000D+01    0.120243D+01    0.000000D+00   -0.418910D+00
   0   170    0.100000D+01    0.120242D+01    0.000000D+00   -0.418905D+00
   0   171    0.100000D+01    0.120240D+01    0.000000D+00   -0.418901D+00
   0   172    0.100000D+01    0.120238D+01    0.000000D+00   -0.418897D+00
   0   173    0.100000D+01    0.120237D+01    0.000000D+00   -0.418892D+00
   0   174    0.100000D+01    0.120235D+01    0.000000D+00   -0.418887D+00
   0   175    0.100000D+01    0.120233D+01    0.000000D+00   -0.418883D+00
   0   176    0.100000D+01    0.120231D+01    0.000000D+00   -0.418878D+00
   0   177    0.100000D+01    0.120229D+01    0.000000D+00   -0.418873D+00
   0   178    0.100000D+01    0.120227D+01    0.000000D+00   -0.418868D+00
   0   179    0.100000D+01    0.120226D+01    0.000000D+00   -0.418863D+00
   0   180    0.100000D+01    0.120224D+01    0.000000D+00   -0.418858D+00
   0   181    0.100000D+01    0.120222D+01    0.000000D+00   -0.418853D+00
   0   182    0.100000D+01    0.120220D+01    0.000000D+00   -0.418849D+00
   0   183    0.100000D+01    0.120218D+01    0.000000D+00   -0.418844D+00
   0   184    0.100000D+01    0.120216D+01    0.000000D+00   -0.418839D+00
   0   185    0.100000D+01    0.120215D+01    0.000000D+00   -0.418834D+00
   0   186    0.100000D+01    0.120213D+01    0.000000D+00   -0.418830D+00
   0   187    0.100000D+01    0.120211D+01    0.000000D+00   -0.418826D+00
   0   188    0.100000D+01    0.120210D+01    0.000000D+00   -0.418821D+00
   0   189    0.100000D+01    0.120208D+01    0.000000D+00   -0.418817D+00
   0   190    0.100000D+01    0.120207D+01    0.000000D+00   -0.418814D+00
   0   191    0.100000D+01    0.120205D+01    0.000000D+00   -0.418810D+00
   0   192    0.100000D+01    0.120204D+01    0.000000D+00   -0.418807D+00
   0   193    0.100000D+01    0.120203D+01    0.000000D+00   -0.418803D+00
   0   194    0.100000D+01    0.120201D+01    0.000000D+00   -0.418800D+00
   0   195    0.100000D+01    0.120200D+01    0.000000D+00   -0.418797D+00
   0   196    0.100000D+01    0.120199D+01    0.000000D+00   -0.418794D+00
   0   197    0.100000D+01    0.120198D+01    0.000000D+00   -0.418791D+00
   0   198    0.100000D+01    0.120197D+01    0.000000D+00   -0.418789D+00
   0   199    0.100000D+01    0.120196D+01    0.000000D+00   -0.418786D+00
   0   200    0.100000D+01    0.120195D+01    0.000000D+00   -0.418783D+00
   0   201    0.100000D+01    0.120194D+01    0.000000D+00   -0.418780D+00
   0   202    0.100000D+01    0.120193D+01    0.000000D+00   -0.418777D+00
   0   203    0.100000D+01    0.120191D+01    0.000000D+00   -0.418774D+00
   0   204    0.100000D+01    0.120190D+01    0.000000D+00   -0.418770D+00
   0   205    0.100000D+01    0.120189D+01    0.000000D+00   -0.418767D+00
   0   206    0.100000D+01    0.120187D+01    0.000000D+00   -0.418763D+00
   0   207    0.100000D+01    0.120185D+01    0.000000D+00   -0.418758D+00
   0   208    0.100000D+01    0.120184D+01    0.000000D+00   -0.418754D+00
   0   209    0.100000D+01    0.120182D+01    0.133836D-10   -0.418749D+00
   0   210    0.100000D+01    0.120180D+01    0.000000D+00   -0.418744D+00
   0   211    0.100000D+01    0.120178D+01    0.000000D+00   -0.418738D+00
   0   212    0.100000D+01    0.120175D+01    0.000000D+00   -0.418732D+00
   0   213    0.100000D+01    0.120173D+01    0.000000D+00   -0.418726D+00
   0   214    0.100000D+01    0.120170D+01    0.000000D+00   -0.418719D+00
   0   215    0.100000D+01    0.120168D+01    0.401509D-10   -0.418713D+00
   0   216    0.100000D+01    0.120165D+01    0.267673D-10   -0.418706D+00
   0   217    0.100000D+01    0.120163D+01    0.000000D+00   -0.418699D+00
   0   218    0.100000D+01    0.120160D+01    0.669181D-10   -0.418692D+00
   0   219    0.100000D+01    0.120157D+01    0.267673D-10   -0.418684D+00
   0   220    0.100000D+01    0.120154D+01    0.120453D-09   -0.418677D+00
   0   221    0.100000D+01    0.120152D+01    0.160604D-09   -0.418670D+00
   0   222    0.100000D+01    0.120149D+01    0.535345D-10   -0.418663D+00
   0   223    0.100000D+01    0.120146D+01    0.120453D-09   -0.418656D+00
   0   224    0.100000D+01    0.120144D+01    0.803018D-10   -0.418649D+00
   0   225    0.100000D+01    0.120141D+01    0.535345D-10   -0.418642D+00
   0   226    0.100000D+01    0.120139D+01    0.495194D-09   -0.418636D+00
   0   227    0.100000D+01    0.120136D+01    0.401509D-10   -0.418630D+00
   0   228    0.100000D+01    0.120134D+01    0.173987D-09   -0.418623D+00
   0   229    0.100000D+01    0.120132D+01    0.112422D-08   -0.418618D+00
   0   230    0.100000D+01    0.120129D+01    0.155250D-08   -0.418612D+00
   0   231    0.100000D+01    0.120127D+01    0.214138D-09   -0.418606D+00
   0   232    0.100000D+01    0.120125D+01    0.441660D-09   -0.418601D+00
   0   233    0.100000D+01    0.120123D+01    0.303808D-08   -0.418596D+00
   0   234    0.100000D+01    0.120121D+01    0.392140D-08   -0.418591D+00
   0   235    0.100000D+01    0.120119D+01    0.198078D-08   -0.418586D+00
   0   236    0.100000D+01    0.120118D+01    0.108407D-08   -0.418581D+00
   0   237    0.100000D+01    0.120116D+01    0.264996D-08   -0.418576D+00
   0   238    0.100000D+01    0.120114D+01    0.318530D-08   -0.418572D+00
   0   239    0.100000D+01    0.120113D+01   -0.120453D-09   -0.418568D+00
   0   240    0.100000D+01    0.120111D+01    0.183356D-07   -0.418565D+00
   0   241    0.100000D+01    0.120110D+01    0.138521D-07   -0.418562D+00
   0   242    0.100000D+01    0.120109D+01    0.192590D-07   -0.418559D+00
   0   243    0.100000D+01    0.120108D+01    0.171712D-07   -0.418557D+00
   0   244    0.100000D+01    0.120108D+01    0.300061D-07   -0.418555D+00
   0   245    0.100000D+01    0.120107D+01    0.499745D-07   -0.418554D+00
   0   246    0.100000D+01    0.120107D+01    0.403516D-07   -0.418553D+00
   0   247    0.100000D+01    0.120107D+01    0.130892D-07   -0.418552D+00
   0   248    0.100000D+01    0.120107D+01    0.347974D-07   -0.418552D+00
   0   249    0.100000D+01    0.120107D+01    0.475253D-07   -0.418552D+00
   0   250    0.100000D+01    0.120107D+01    0.652050D-07   -0.418553D+00
   0   251    0.100000D+01    0.120107D+01    0.113051D-06   -0.418553D+00
   0   252    0.100000D+01    0.120107D+01    0.281725D-07   -0.418553D+00
   0   253    0.100000D+01    0.120107D+01    0.192483D-06   -0.418553D+00
   0   254    0.100000D+01    0.120107D+01   -0.200888D-07   -0.418553D+00
   0   255    0.100000D+01    0.120107D+01    0.503546D-06   -0.418553D+00
   0   256    0.100000D+01    0.120107D+01    0.630315D-06   -0.418553D+00
   0   257    0.100000D+01    0.120106D+01    0.542412D-06   -0.418552D+00
   0   258    0.100000D+01    0.120106D+01    0.854678D-06   -0.418551D+00
   0   259    0.100000D+01    0.120106D+01    0.103692D-05   -0.418550D+00
   0   260    0.100000D+01    0.120105D+01    0.133712D-05   -0.418548D+00
   0   261    0.100000D+01    0.120104D+01   -0.139324D-06   -0.418546D+00
   0   262    0.100000D+01    0.120103D+01    0.191142D-05   -0.418544D+00
   0   263    0.100000D+01    0.120103D+01    0.614242D-06   -0.418542D+00
   0   264    0.100000D+01    0.120102D+01    0.405343D-05   -0.418539D+00
   0   265    0.100000D+01    0.120101D+01    0.267478D-05   -0.418537D+00
   0   266    0.100000D+01    0.120100D+01    0.644514D-05   -0.418535D+00
   0   267    0.100000D+01    0.120099D+01   -0.218167D-06   -0.418532D+00
   0   268    0.100000D+01    0.120098D+01    0.466547D-05   -0.418530D+00
   0   269    0.100000D+01    0.120097D+01    0.369401D-05   -0.418527D+00
   0   270    0.100000D+01    0.120096D+01    0.667581D-05   -0.418525D+00
   0   271    0.100000D+01    0.120095D+01    0.427615D-05   -0.418522D+00
   0   272    0.100000D+01    0.120094D+01    0.293852D-04   -0.418520D+00
   0   273    0.100000D+01    0.120093D+01    0.174471D-04   -0.418517D+00
   0   274    0.100000D+01    0.120092D+01    0.652840D-06   -0.418515D+00
   0   275    0.100000D+01    0.120091D+01    0.505063D-04   -0.418512D+00
   0   276    0.100000D+01    0.120090D+01    0.120085D-04   -0.418509D+00
   0   277    0.100000D+01    0.120089D+01   -0.107876D-05   -0.418506D+00
   0   278    0.100000D+01    0.120088D+01    0.845460D-04   -0.418503D+00
   0   279    0.100000D+01    0.120086D+01    0.996103D-04   -0.418499D+00
   0   280    0.100000D+01    0.120084D+01    0.467687D-04   -0.418494D+00
   0   281    0.100000D+01    0.120082D+01    0.116540D-03   -0.418489D+00
   0   282    0.100000D+01    0.120080D+01    0.205563D-03   -0.418482D+00
   0   283    0.100000D+01    0.120077D+01    0.144071D-03   -0.418474D+00
   0   284    0.100000D+01    0.120073D+01    0.253541D-03   -0.418465D+00
   0   285    0.999999D+00    0.120069D+01    0.293745D-03   -0.418454D+00
   0   286    0.999999D+00    0.120064D+01    0.571370D-03   -0.418442D+00
   0   287    0.999999D+00    0.120059D+01    0.276736D-03   -0.418428D+00
   0   288    0.999999D+00    0.120053D+01    0.263749D-04   -0.418412D+00
   0   289    0.999999D+00    0.120046D+01    0.583766D-03   -0.418394D+00
   0   290    0.999998D+00    0.120039D+01    0.750878D-03   -0.418374D+00
   0   291    0.999998D+00    0.120030D+01    0.975232D-03   -0.418352D+00
   0   292    0.999997D+00    0.120021D+01    0.207901D-02   -0.418328D+00
   0   293    0.999997D+00    0.120011D+01    0.265013D-03   -0.418302D+00
   0   294    0.999996D+00    0.120000D+01    0.311520D-02   -0.418273D+00
   0   295    0.999994D+00    0.119989D+01    0.266839D-02   -0.418242D+00
   0   296    0.999993D+00    0.119976D+01    0.694106D-02   -0.418208D+00
   0   297    0.999991D+00    0.119962D+01    0.872815D-02   -0.418172D+00
   0   298    0.999989D+00    0.119948D+01    0.131308D-01   -0.418134D+00
   0   299    0.999986D+00    0.119933D+01    0.506211D-02   -0.418094D+00
   0   300    0.999983D+00    0.119917D+01    0.125756D-01   -0.418053D+00
   0   301    0.999978D+00    0.119901D+01    0.204895D-01   -0.418011D+00
   0   302    0.999972D+00    0.119885D+01    0.162051D-01   -0.417969D+00
   0   303    0.999965D+00    0.119869D+01    0.135322D-01   -0.417926D+00
   0   304    0.999955D+00    0.119853D+01    0.188385D-01   -0.417883D+00
   0   305    0.999942D+00    0.119837D+01    0.288286D-01   -0.417839D+00
   0   306    0.999927D+00    0.119820D+01    0.289137D-01   -0.417794D+00
   0   307    0.999906D+00    0.119802D+01    0.564856D-01   -0.417747D+00
   0   308    0.999882D+00    0.119783D+01    0.222110D-02   -0.417697D+00
   0   309    0.999852D+00    0.119763D+01    0.899244D-01   -0.417642D+00
   0   310    0.999812D+00    0.119741D+01    0.171356D+00   -0.417582D+00
   0   311    0.999761D+00    0.119716D+01    0.995824D-01   -0.417518D+00
   0   312    0.999699D+00    0.119691D+01    0.108624D-01   -0.417449D+00
   0   313    0.999618D+00    0.119663D+01    0.388487D+00   -0.417374D+00
   0   314    0.999530D+00    0.119634D+01    0.433459D+00   -0.417296D+00
   0   315    0.999406D+00    0.119602D+01    0.178169D-01   -0.417208D+00
   0   316    0.999239D+00    0.119567D+01    0.235339D+00   -0.417114D+00
   0   317    0.999025D+00    0.119525D+01    0.100634D+01   -0.417003D+00
   0   318    0.998769D+00    0.119479D+01    0.109477D+01   -0.416877D+00
   0   319    0.998435D+00    0.119426D+01    0.312028D+00   -0.416731D+00
   0   320    0.998036D+00    0.119360D+01    0.203958D+01   -0.416549D+00
   0   321    0.997496D+00    0.119283D+01    0.267347D+00   -0.416333D+00
   0   322    0.996834D+00    0.119187D+01   -0.521136D-01   -0.416073D+00
   0   323    0.996071D+00    0.119079D+01    0.117488D+00   -0.415769D+00
   0   324    0.995130D+00    0.118943D+01    0.465341D+01   -0.415392D+00
   0   325    0.993976D+00    0.118784D+01    0.568803D+01   -0.414936D+00
   0   326    0.992621D+00    0.118579D+01    0.124187D+01   -0.414366D+00
   0   327    0.990790D+00    0.118349D+01    0.157849D+01   -0.413717D+00
   0   328    0.988434D+00    0.118046D+01    0.751851D+01   -0.412816D+00
   0   329    0.985950D+00    0.117734D+01    0.855406D+01   -0.411882D+00
   0   330    0.982856D+00    0.117336D+01    0.854738D+01   -0.410702D+00
   0   331    0.979334D+00    0.116919D+01    0.192950D+02   -0.409356D+00
   0   332    0.974759D+00    0.116411D+01    0.920598D+01   -0.407756D+00
   0   333    0.970241D+00    0.115787D+01    0.118011D+02   -0.405693D+00
   0   334    0.964654D+00    0.115118D+01    0.307765D+02   -0.403319D+00
   0   335    0.958009D+00    0.114336D+01    0.288733D+02   -0.400607D+00
   0   336    0.952313D+00    0.113521D+01   -0.475194D+01   -0.397501D+00
   0   337    0.944446D+00    0.112606D+01    0.251472D+02   -0.393713D+00
   0   338    0.936075D+00    0.111597D+01   -0.111458D+02   -0.389525D+00
   0   339    0.927643D+00    0.110632D+01    0.120089D+02   -0.385142D+00
   0   340    0.920073D+00    0.109628D+01    0.181438D+02   -0.380227D+00
   0   341    0.910955D+00    0.108534D+01    0.503899D+02   -0.374755D+00
   0   342    0.901653D+00    0.107387D+01    0.481873D+02   -0.367862D+00
   0   343    0.895081D+00    0.106241D+01   -0.335546D+02   -0.361011D+00
   0   344    0.886523D+00    0.105274D+01    0.310978D+02   -0.354276D+00
   0   345    0.878744D+00    0.104627D+01    0.193430D+02   -0.348987D+00
   0   346    0.870649D+00    0.103997D+01    0.809419D+02   -0.344779D+00
   0   347    0.862504D+00    0.103044D+01   -0.327587D+01   -0.336370D+00
   0   348    0.853585D+00    0.101983D+01    0.966738D+02   -0.327303D+00
   0   349    0.844472D+00    0.100963D+01   -0.336434D+01   -0.317599D+00
   0   350    0.836120D+00    0.100001D+01    0.609796D+02   -0.306895D+00
   0   351    0.826082D+00    0.988176D+00    0.381993D+02   -0.293237D+00
   0   352    0.812640D+00    0.972639D+00   -0.351583D+02   -0.271961D+00
   0   353    0.794938D+00    0.955161D+00    0.976458D+02   -0.243053D+00
   0   354    0.770603D+00    0.931377D+00    0.151884D+03   -0.196180D+00
   0   355    0.729776D+00    0.896501D+00    0.236021D+02   -0.100265D+00
   0   356    0.653171D+00    0.827115D+00    0.303078D+03    0.118050D+00
   0   357    0.469672D+00    0.670833D+00    0.457218D+03    0.359740D+00
   0   358    0.235424D+00    0.403917D+00    0.374482D+03    0.443127D+00
   0   359    0.926761D-01    0.190709D+00    0.245460D+03    0.464345D+00
   0   360    0.323859D-01    0.772556D-01    0.888679D+02    0.471076D+00
   0   361    0.112787D-01    0.291131D-01    0.305649D+02    0.473396D+00
   0   362    0.381331D-02    0.104344D-01    0.108769D+02    0.474225D+00
   0   363    0.132281D-02    0.369976D-02    0.284133D+01    0.474515D+00
   0   364    0.453170D-03    0.128500D-02    0.878887D+00    0.474618D+00
   0   365    0.156817D-03    0.442913D-03    0.404730D+00    0.474654D+00
   0   366    0.520088D-04    0.152231D-03    0.160838D+00    0.474666D+00
   0   367    0.178295D-04    0.518288D-04    0.369819D-01    0.474670D+00
   0   368    0.606824D-05    0.175655D-04    0.143829D-01    0.474672D+00
   0   369    0.205964D-05    0.598924D-05    0.524902D-02    0.474672D+00
   0   370    0.700865D-06    0.203830D-05    0.213894D-02    0.474672D+00
   0   371    0.239483D-06    0.691988D-06    0.621427D-03    0.474673D+00
   0   372    0.806352D-07    0.235525D-06    0.204155D-03    0.474673D+00
   0   373    0.276416D-07    0.801354D-07    0.529119D-04    0.474673D+00
   0   374    0.924205D-08    0.271193D-07    0.236084D-04    0.474673D+00
   0   375    0.314052D-08    0.921043D-08    0.737645D-05    0.474673D+00
   0   376    0.108286D-08    0.313604D-08    0.213130D-05    0.474673D+00
   0   377    0.362605D-09    0.106619D-08    0.953611D-06    0.474673D+00
   0   378    0.121683D-09    0.364946D-09    0.382776D-06    0.474673D+00
   0   379    0.418331D-10    0.123473D-09    0.955200D-07    0.474673D+00
   0   380    0.141791D-10    0.420476D-10    0.411382D-07    0.474673D+00
   0   381    0.479520D-11    0.142524D-10    0.980901D-08    0.474673D+00
   0   382    0.164559D-11    0.488052D-11    0.454299D-08    0.474673D+00
   0   383    0.559039D-12    0.164039D-11    0.158435D-08    0.474673D+00
   0   384    0.189277D-12    0.556012D-12    0.453128D-09    0.474673D+00
   0   385    0.642636D-13    0.187727D-12    0.178257D-09    0.474673D+00
   0   386    0.215400D-13    0.637175D-13    0.608952D-10    0.474673D+00
   0   387    0.741254D-14    0.216787D-13    0.158815D-10    0.474673D+00
   0   388    0.252674D-14    0.737588D-14    0.473957D-11    0.474673D+00
   0   389    0.860369D-15    0.251876D-14    0.228313D-11    0.474673D+00
   0   390    0.294761D-15    0.860554D-15    0.856914D-12    0.474673D+00
   0   391    0.988348D-16    0.292587D-15    0.239829D-12    0.474673D+00
   0   392    0.332509D-16    0.986593D-16    0.854186D-13    0.474673D+00
   0   393    0.112856D-16    0.332436D-16    0.234548D-13    0.474673D+00
   0   394    0.379947D-17    0.112324D-16    0.105148D-13    0.474673D+00
   0   395    0.128212D-17    0.380398D-17    0.396672D-14    0.474673D+00
   0   396    0.437452D-18    0.129485D-17    0.113352D-14    0.474673D+00
   0   397    0.146063D-18    0.437152D-18    0.474440D-15    0.474673D+00