variables =  "IG"  "JG"  "PHI"  "Temp."  "Latent_heat"  "mm"
ZONE  I=  401  J=  101
   0     0    0.100000D+01    0.346155D+00    0.669181D-10    0.449966D+00
   0     1    0.100000D+01    0.346155D+00    0.401509D-10    0.449966D+00
   0     2    0.100000D+01    0.356900D+00    0.133836D-10    0.448674D+00
   0     3    0.100000D+01    0.377971D+00    0.776250D-09    0.445983D+00
   0     4    0.100000D+01    0.408557D+00    0.152975D-07    0.441651D+00
   0     5    0.100000D+01    0.447513D+00    0.211194D-07    0.435257D+00
   0     6    0.100000D+01    0.493428D+00    0.649534D-06    0.426097D+00
   0     7    0.100000D+01    0.544715D+00    0.403650D-06    0.412986D+00
   0     8    0.100000D+01    0.599701D+00    0.885743D-05    0.393870D+00
   0     9    0.100000D+01    0.656718D+00   -0.364748D-05    0.364993D+00
   0    10    0.100000D+01    0.714181D+00    0.188582D-03    0.319172D+00
   0    11    0.999998D+00    0.770661D+00    0.132286D-03    0.242853D+00
   0    12    0.999992D+00    0.824932D+00    0.389005D-02    0.118084D+00
   0    13    0.999969D+00    0.876008D+00    0.214236D-01   -0.428424D-01
   0    14    0.999904D+00    0.923159D+00    0.743740D-01   -0.177149D+00
   0    15    0.999756D+00    0.965900D+00   -0.472750D-01   -0.261166D+00
   0    16    0.999481D+00    0.100398D+01    0.112829D+00   -0.311346D+00
   0    17    0.999031D+00    0.103735D+01    0.403428D+00   -0.342658D+00
   0    18    0.998388D+00    0.106609D+01   -0.439394D+00   -0.363238D+00
   0    19    0.997483D+00    0.109043D+01    0.252289D+01   -0.377333D+00
   0    20    0.996371D+00    0.111058D+01   -0.453349D+00   -0.387221D+00
   0    21    0.994949D+00    0.112686D+01   -0.217898D+00   -0.394238D+00
   0    22    0.993167D+00    0.113928D+01    0.826155D+00   -0.399128D+00
   0    23    0.991052D+00    0.114806D+01    0.739022D+01   -0.402357D+00
   0    24    0.988294D+00    0.115380D+01   -0.134870D+01   -0.404356D+00
   0    25    0.985000D+00    0.115664D+01    0.586261D+01   -0.405300D+00
   0    26    0.981261D+00    0.115682D+01   -0.178387D+01   -0.405369D+00
   0    27    0.976528D+00    0.115439D+01   -0.279048D+01   -0.404574D+00
   0    28    0.970759D+00    0.115028D+01    0.762470D+01   -0.403048D+00
   0    29    0.965738D+00    0.114445D+01    0.892151D+01   -0.401009D+00
   0    30    0.958414D+00    0.113632D+01    0.128232D+02   -0.397968D+00
   0    31    0.950974D+00    0.112909D+01    0.192021D+02   -0.395096D+00
   0    32    0.941888D+00    0.111961D+01    0.401332D+02   -0.391226D+00
   0    33    0.930467D+00    0.110919D+01    0.683446D+02   -0.386612D+00
   0    34    0.920009D+00    0.109775D+01    0.644345D+01   -0.381134D+00
   0    35    0.909884D+00    0.108662D+01    0.582488D+01   -0.375044D+00
   0    36    0.900777D+00    0.107431D+01   -0.193064D+02   -0.367938D+00
   0    37    0.890786D+00    0.106137D+01    0.210488D+02   -0.360017D+00
   0    38    0.880144D+00    0.104920D+01   -0.965804D+01   -0.351582D+00
   0    39    0.872071D+00    0.104000D+01    0.159861D+02   -0.344505D+00
   0    40    0.862230D+00    0.102535D+01   -0.304419D+02   -0.332103D+00
   0    41    0.849609D+00    0.101535D+01    0.361191D+02   -0.322180D+00
   0    42    0.839260D+00    0.100117D+01    0.145946D+02   -0.307544D+00
   0    43    0.827387D+00    0.986383D+00   -0.506789D+02   -0.290313D+00
   0    44    0.811657D+00    0.969765D+00   -0.104807D+02   -0.264945D+00
   0    45    0.791346D+00    0.947108D+00    0.132457D+03   -0.228095D+00
   0    46    0.763410D+00    0.921911D+00    0.195375D+03   -0.170537D+00
   0    47    0.713349D+00    0.875872D+00    0.183957D+03   -0.345943D-01
   0    48    0.602781D+00    0.786624D+00    0.399980D+03    0.220251D+00
   0    49    0.375486D+00    0.576030D+00    0.579107D+03    0.404263D+00
   0    50    0.169713D+00    0.311225D+00    0.345215D+03    0.454354D+00
   0    51    0.641150D-01    0.137258D+00    0.155464D+03    0.467779D+00
   0    52    0.220754D-01    0.540687D-01    0.491192D+02    0.472222D+00
   0    53    0.757735D-02    0.198324D-01    0.175488D+02    0.473814D+00
   0    54    0.255507D-02    0.700114D-02    0.764445D+01    0.474374D+00
   0    55    0.878818D-03    0.244628D-02    0.173851D+01    0.474569D+00
   0    56    0.300406D-03    0.847375D-03    0.914699D+00    0.474637D+00
   0    57    0.103734D-03    0.292060D-03    0.200259D+00    0.474660D+00
   0    58    0.349744D-04    0.997747D-04    0.110088D+00    0.474668D+00
   0    59    0.117903D-04    0.338551D-04    0.238702D-01    0.474671D+00
   0    60    0.395899D-05    0.114644D-04    0.116753D-01    0.474672D+00
   0    61    0.135112D-05    0.392093D-05    0.365478D-02    0.474672D+00
   0    62    0.458762D-06    0.132383D-05    0.104802D-02    0.474673D+00
   0    63    0.155311D-06    0.449353D-06    0.385729D-03    0.474673D+00
   0    64    0.519477D-07    0.151807D-06    0.129832D-03    0.474673D+00
   0    65    0.178525D-07    0.515854D-07    0.418765D-04    0.474673D+00
   0    66    0.597361D-08    0.174239D-07    0.166988D-04    0.474673D+00
   0    67    0.201176D-08    0.587787D-08    0.532944D-05    0.474673D+00
   0    68    0.681855D-09    0.198934D-08    0.213771D-05    0.474673D+00
   0    69    0.228644D-09    0.673122D-09    0.468644D-06    0.474673D+00
   0    70    0.765452D-10    0.227849D-09    0.176269D-06    0.474673D+00
   0    71    0.259494D-10    0.769715D-10    0.695596D-07    0.474673D+00
   0    72    0.874038D-11    0.258530D-10    0.276341D-07    0.474673D+00
   0    73    0.294423D-11    0.870909D-11    0.626685D-08    0.474673D+00
   0    74    0.101126D-11    0.294467D-11    0.243854D-08    0.474673D+00
   0    75    0.338100D-12    0.996561D-12    0.104760D-08    0.474673D+00
   0    76    0.114370D-12    0.336668D-12    0.324366D-09    0.474673D+00
   0    77    0.383083D-13    0.113611D-12    0.105025D-09    0.474673D+00
   0    78    0.130999D-13    0.382377D-13    0.374475D-10    0.474673D+00
   0    79    0.435671D-14    0.128602D-13    0.115437D-10    0.474673D+00
   0    80    0.148308D-14    0.433998D-14    0.416596D-11    0.474673D+00
   0    81    0.501824D-15    0.147177D-14    0.110409D-11    0.474673D+00
   0    82    0.170861D-15    0.493760D-15    0.480268D-12    0.474673D+00
   0    83    0.571045D-16    0.165376D-15    0.174892D-12    0.474673D+00
   0    84    0.187666D-16    0.553244D-16    0.498005D-13    0.474673D+00
   0    85    0.634510D-17    0.184623D-16    0.192489D-13    0.474673D+00
   0    86    0.211074D-17    0.615193D-17    0.676140D-14    0.474673D+00
   0    87    0.696008D-18    0.204738D-17    0.227139D-14    0.474673D+00
   0    88    0.235954D-18    0.682221D-18    0.658393D-15    0.474673D+00
   0    89    0.769314D-19    0.226354D-18    0.250176D-15    0.474673D+00
   0    90    0.255085D-19    0.742432D-19    0.820345D-16    0.474673D+00
   0    91    0.852533D-20    0.245347D-19    0.194970D-16    0.474673D+00
   0    92    0.282310D-20    0.813055D-20    0.820590D-17    0.474673D+00
   0    93    0.914997D-21    0.266599D-20    0.205012D-17    0.474673D+00
   0    94    0.303206D-21    0.868902D-21    0.804533D-18    0.474673D+00
   0    95    0.991513D-22    0.284703D-21    0.229126D-18    0.474673D+00
   0    96    0.317018D-22    0.924263D-22    0.950158D-19    0.474673D+00
   0    97    0.102369D-22    0.297557D-22    0.308427D-19    0.474673D+00
   0    98    0.332716D-23    0.960007D-23    0.109712D-19    0.474673D+00
   0    99    0.106488D-23    0.306746D-23    0.257360D-20    0.474673D+00
   0   100    0.335858D-24    0.973754D-24    0.891831D-21    0.474673D+00
   0   101    0.104492D-24    0.306954D-24    0.275431D-21    0.474673D+00
   0   102    0.326452D-25    0.962086D-25    0.112772D-21    0.474673D+00
   0   103    0.102642D-25    0.300313D-25    0.365691D-22    0.474673D+00
   0   104    0.325384D-26    0.927350D-26    0.796119D-23    0.474673D+00
   0   105    0.100617D-26    0.288359D-26    0.328199D-23    0.474673D+00
   0   106    0.311551D-27    0.884939D-27    0.848257D-24    0.474673D+00
   0   107    0.939500D-28    0.270889D-27    0.319135D-24    0.474673D+00
   0   108    0.286926D-28    0.826011D-28    0.817583D-25    0.474673D+00
   0   109    0.868539D-29    0.248126D-28    0.307344D-25    0.474673D+00
   0   110    0.258627D-29    0.743550D-29    0.813271D-26    0.474673D+00
   0   111    0.770895D-30    0.222506D-29    0.296914D-26    0.474673D+00
   0   112    0.229384D-30    0.656340D-30    0.756038D-27    0.474673D+00
   0   113    0.674510D-31    0.192017D-30    0.197634D-27    0.474673D+00
   0   114    0.194629D-31    0.562181D-31    0.684404D-28    0.474673D+00
   0   115    0.565485D-32    0.162884D-31    0.220605D-28    0.474673D+00
   0   116    0.162525D-32    0.467029D-32    0.512664D-29    0.474673D+00
   0   117    0.468965D-33    0.134137D-32    0.171140D-29    0.474673D+00
   0   118    0.134202D-33    0.382015D-33    0.451807D-30    0.474673D+00
   0   119    0.381360D-34    0.107887D-33    0.149906D-30    0.474673D+00
   0   120    0.107704D-34    0.302785D-34    0.352887D-31    0.474673D+00
   0   121    0.302976D-35    0.851051D-35    0.128784D-31    0.474673D+00
   0   122    0.834891D-36    0.234987D-35    0.366210D-32    0.474673D+00
   0   123    0.225526D-36    0.646894D-36    0.811477D-33    0.474673D+00
   0   124    0.622025D-37    0.177188D-36    0.247965D-33    0.474673D+00
   0   125    0.172868D-37    0.482642D-37    0.572202D-34    0.474673D+00
   0   126    0.470479D-38    0.130885D-37    0.200720D-34    0.474673D+00
   0   127    0.124655D-38    0.351456D-38    0.554148D-35    0.474673D+00
   0   128    0.332842D-39    0.937009D-39    0.154015D-35    0.474673D+00
   0   129    0.868655D-40    0.245952D-39    0.330455D-36    0.474673D+00
   0   130    0.229008D-40    0.644517D-40    0.102304D-36    0.474673D+00
   0   131    0.588543D-41    0.167533D-40    0.250936D-37    0.474673D+00
   0   132    0.153677D-41    0.431754D-41    0.723250D-38    0.474673D+00
   0   133    0.395719D-42    0.110939D-41    0.153119D-38    0.474673D+00
   0   134    0.100547D-42    0.282606D-42    0.467209D-39    0.474673D+00
   0   135    0.255332D-43    0.722092D-43    0.121502D-39    0.474673D+00
   0   136    0.634738D-44    0.180907D-43    0.335832D-40    0.474673D+00
   0   137    0.158909D-44    0.449613D-44    0.698207D-41    0.474673D+00
   0   138    0.398146D-45    0.111329D-44    0.197185D-41    0.474673D+00
   0   139    0.977382D-46    0.273139D-45    0.409691D-42    0.474673D+00
   0   140    0.238461D-46    0.670955D-46    0.103797D-42    0.474673D+00
   0   141    0.581431D-47    0.162176D-46    0.302042D-43    0.474673D+00
   0   142    0.141805D-47    0.394384D-47    0.599932D-44    0.474673D+00
   0   143    0.339910D-48    0.949388D-48    0.155872D-44    0.474673D+00
   0   144    0.808327D-49    0.227097D-48    0.379313D-45    0.474673D+00
   0   145    0.192148D-49    0.538551D-49    0.102553D-45    0.474673D+00
   0   146    0.452888D-50    0.127473D-49    0.246994D-46    0.474673D+00
   0   147    0.107592D-50    0.298481D-50    0.545417D-47    0.474673D+00
   0   148    0.250179D-51    0.691867D-51    0.135898D-47    0.474673D+00
   0   149    0.574652D-52    0.159205D-51    0.326499D-48    0.474673D+00
   0   150    0.132388D-52    0.367282D-52    0.747413D-49    0.474673D+00
   0   151    0.298062D-53    0.835266D-53    0.169128D-49    0.474673D+00
   0   152    0.679940D-54    0.189140D-53    0.395768D-50    0.474673D+00
   0   153    0.153194D-54    0.426164D-54    0.895909D-51    0.474673D+00
   0   154    0.342996D-55    0.949664D-55    0.190744D-51    0.474673D+00
   0   155    0.759745D-56    0.211837D-55    0.405697D-52    0.474673D+00
   0   156    0.169765D-56    0.467619D-56    0.954819D-53    0.474673D+00
   0   157    0.366609D-57    0.102562D-56    0.201233D-53    0.474673D+00
   0   158    0.805642D-58    0.223315D-57    0.437604D-54    0.474673D+00
   0   159    0.172274D-58    0.483043D-58    0.993010D-55    0.474673D+00
   0   160    0.371223D-59    0.104082D-58    0.208320D-55    0.474673D+00
   0   161    0.791709D-60    0.222385D-59    0.522986D-56    0.474673D+00
   0   162    0.167864D-60    0.471936D-60    0.102638D-56    0.474673D+00
   0   163    0.356276D-61    0.993959D-61    0.208918D-57    0.474673D+00
   0   164    0.747795D-62    0.208455D-61    0.467980D-58    0.474673D+00
   0   165    0.156182D-62    0.435949D-62    0.101004D-58    0.474673D+00
   0   166    0.325565D-63    0.912672D-63    0.196738D-59    0.474673D+00
   0   167    0.678975D-64    0.187663D-63    0.420703D-60    0.474673D+00
   0   168    0.139708D-64    0.385366D-64    0.951145D-61    0.474673D+00
   0   169    0.280806D-65    0.782789D-65    0.183312D-61    0.474673D+00
   0   170    0.573851D-66    0.158288D-65    0.389344D-62    0.474673D+00
   0   171    0.113245D-66    0.316000D-66    0.710457D-63    0.474673D+00
   0   172    0.227567D-67    0.631563D-67    0.160655D-63    0.474673D+00
   0   173    0.456361D-68    0.125822D-67    0.324235D-64    0.474673D+00
   0   174    0.914166D-69    0.249433D-68    0.649068D-65    0.474673D+00
   0   175    0.178748D-69    0.491259D-69    0.133666D-65    0.474673D+00
   0   176    0.349915D-70    0.959957D-70    0.256011D-66    0.474673D+00
   0   177    0.674472D-71    0.185877D-70    0.434380D-67    0.474673D+00
   0   178    0.128440D-71    0.356776D-71    0.931427D-68    0.474673D+00
   0   179    0.248158D-72    0.683348D-72    0.185574D-68    0.474673D+00
   0   180    0.470372D-73    0.130133D-72    0.332367D-69    0.474673D+00
   0   181    0.895136D-74    0.245780D-73    0.624025D-70    0.474673D+00
   0   182    0.169112D-74    0.464364D-74    0.127119D-70    0.474673D+00
   0   183    0.317694D-75    0.868679D-75    0.223807D-71    0.474673D+00
   0   184    0.597208D-76    0.161942D-75    0.406636D-72    0.474673D+00
   0   185    0.111030D-76    0.300826D-76    0.845332D-73    0.474673D+00
   0   186    0.203237D-77    0.554268D-77    0.144471D-73    0.474673D+00
   0   187    0.369459D-78    0.101276D-77    0.291756D-74    0.474673D+00
   0   188    0.673976D-79    0.184144D-78    0.472726D-75    0.474673D+00
   0   189    0.122531D-79    0.333982D-79    0.100627D-75    0.474673D+00
   0   190    0.219141D-80    0.602588D-80    0.181771D-76    0.474673D+00
   0   191    0.395002D-81    0.108059D-80    0.285871D-77    0.474673D+00
   0   192    0.703551D-82    0.192328D-81    0.568823D-78    0.474673D+00
   0   193    0.124507D-82    0.341431D-82    0.974116D-79    0.474673D+00
   0   194    0.223002D-83    0.605013D-83    0.180307D-79    0.474673D+00
   0   195    0.391375D-84    0.106218D-83    0.300882D-80    0.474673D+00
   0   196    0.673049D-85    0.185240D-84    0.533526D-81    0.474673D+00
   0   197    0.118026D-85    0.321242D-85    0.938101D-82    0.474673D+00
   0   198    0.204641D-86    0.553285D-86    0.156807D-82    0.474673D+00
   0   199    0.350036D-87    0.944417D-87    0.276558D-83    0.474673D+00
   0   200    0.593582D-88    0.161338D-87    0.507097D-84    0.474673D+00
   0   201    0.100316D-88    0.275259D-88    0.824036D-85    0.474673D+00
   0   202    0.168828D-89    0.463950D-89    0.140302D-85    0.474673D+00
   0   203    0.283992D-90    0.775318D-90    0.244401D-86    0.474673D+00
   0   204    0.474826D-91    0.129944D-90    0.402529D-87    0.474673D+00
   0   205    0.782316D-92    0.215070D-91    0.738342D-88    0.474673D+00
   0   206    0.131086D-92    0.354032D-92    0.115325D-88    0.474673D+00
   0   207    0.215027D-93    0.581423D-93    0.190527D-89    0.474673D+00
   0   208    0.349919D-94    0.953179D-94    0.317892D-90    0.474673D+00
   0   209    0.573734D-95    0.155069D-94    0.489494D-91    0.474673D+00
   0   210    0.920016D-96    0.251583D-95    0.859171D-92    0.474673D+00
   0   211    0.149011D-96    0.406290D-96    0.139899D-92    0.474673D+00
   0   212    0.236716D-97    0.649375D-97    0.223715D-93    0.474673D+00
   0   213    0.375858D-98    0.103475D-97    0.334351D-94    0.474673D+00
   0   214    0.596610D-99    0.163149D-98    0.584061D-95    0.474673D+00
   0   215    0.939475-100    0.258285D-99    0.868927D-96    0.474673D+00
   0   216    0.149266-100    0.405309-100    0.143420D-96    0.474673D+00
   0   217    0.230479-101    0.635254-101    0.225428D-97    0.474673D+00
   0   218    0.356866-102    0.985147-102    0.362120D-98    0.474673D+00
   0   219    0.555708-103    0.152282-102    0.535225D-99    0.474673D+00
   0   220    0.851781-104    0.232877-103    0.866050-100    0.474673D+00
   0   221    0.129954-104    0.355466-104    0.127183-100    0.474673D+00
   0   222    0.196506-105    0.540085-105    0.192462-101    0.474673D+00
   0   223    0.298950-106    0.816034-106    0.302456-102    0.474673D+00
   0   224    0.451196-107    0.122832-106    0.424808-103    0.474673D+00
   0   225    0.667278-108    0.183389-107    0.720309-104    0.474673D+00
   0   226    0.100054-108    0.273772-108    0.988367-105    0.474673D+00
   0   227    0.148471-109    0.404052-109    0.150238-105    0.474673D+00
   0   228    0.217603-110    0.594558-110    0.227197-106    0.474673D+00
   0   229    0.320690-111    0.880368-111    0.344997-107    0.474673D+00
   0   230    0.468260-112    0.128923-111    0.509902-108    0.474673D+00
   0   231    0.688832-113    0.187690-112    0.685225-109    0.474673D+00
   0   232    0.992463-114    0.270804-113    0.102885-109    0.474673D+00
   0   233    0.142858-114    0.388459-114    0.156340-110    0.474673D+00
   0   234    0.205811-115    0.557083-115    0.227326-111    0.474673D+00
   0   235    0.293485-116    0.796096-116    0.315837-112    0.474673D+00
   0   236    0.418093-117    0.113654-116    0.460267-113    0.474673D+00
   0   237    0.592627-118    0.161013-117    0.674500-114    0.474673D+00
   0   238    0.833816-119    0.227749-118    0.948167-115    0.474673D+00
   0   239    0.116391-119    0.319536-119    0.124797-115    0.474673D+00
   0   240    0.164738-120    0.443331-120    0.183879-116    0.474673D+00
   0   241    0.225304-121    0.611919-121    0.268300-117    0.474673D+00
   0   242    0.308601-122    0.845261-122    0.353848-118    0.474673D+00
   0   243    0.428424-123    0.116870-122    0.491888-119    0.474673D+00
   0   244    0.585057-124    0.159749-123    0.661577-120    0.474673D+00
   0   245    0.799533-125    0.217436-124    0.908796-121    0.474673D+00
   0   246    0.107469-125    0.294800-125    0.125286-121    0.474673D+00
   0   247    0.146464-126    0.396362-126    0.160346-122    0.474673D+00
   0   248    0.197361-127    0.533518-127    0.237810-123    0.474673D+00
   0   249    0.264288-128    0.716711-128    0.297794-124    0.474673D+00
   0   250    0.350443-129    0.954225-129    0.423901-125    0.474673D+00
   0   251    0.466782-130    0.125725-129    0.549103-126    0.474673D+00
   0   252    0.614217-131    0.165643-130    0.722206-127    0.474673D+00
   0   253    0.796944-132    0.218008-131    0.100472-127    0.474673D+00
   0   254    0.104067-132    0.285720-132    0.127824-128    0.474673D+00
   0   255    0.136352-133    0.370387-133    0.161970-129    0.474673D+00
   0   256    0.177558-134    0.478428-134    0.211154-130    0.474673D+00
   0   257    0.230744-135    0.618425-135    0.282948-131    0.474673D+00
   0   258    0.296287-136    0.796446-136    0.385644-132    0.474673D+00
   0   259    0.378553-137    0.102344-136    0.481648-133    0.474673D+00
   0   260    0.479419-138    0.130562-137    0.639158-134    0.474673D+00
   0   261    0.613480-139    0.165171-138    0.757764-135    0.474673D+00
   0   262    0.766678-140    0.207217-139    0.966634-136    0.474673D+00
   0   263    0.963402-141    0.259573-140    0.121672-136    0.474673D+00
   0   264    0.121216-141    0.324908-141    0.161194-137    0.474673D+00
   0   265    0.149454-142    0.405320-142    0.201542-138    0.474673D+00
   0   266    0.183792-143    0.500453-143    0.237935-139    0.474673D+00
   0   267    0.227459-144    0.614760-144    0.300325-140    0.474673D+00
   0   268    0.281523-145    0.756395-145    0.353492-141    0.474673D+00
   0   269    0.343730-146    0.927338-146    0.450218-142    0.474673D+00
   0   270    0.417692-147    0.113688-146    0.581075-143    0.474673D+00
   0   271    0.509506-148    0.137510-147    0.690460-144    0.474673D+00
   0   272    0.613657-149    0.166026-148    0.832813-145    0.474673D+00
   0   273    0.730551-150    0.200121-149    0.101629-145    0.474673D+00
   0   274    0.880098-151    0.237869-150    0.121212-146    0.474673D+00
   0   275    0.105659-151    0.283075-151    0.139749-147    0.474673D+00
   0   276    0.124149-152    0.334404-152    0.166789-148    0.474673D+00
   0   277    0.146208-153    0.397591-153    0.199006-149    0.474673D+00
   0   278    0.173269-154    0.469620-154    0.241027-150    0.474673D+00
   0   279    0.203612-155    0.556314-155    0.296059-151    0.474673D+00
   0   280    0.238546-156    0.647513-156    0.329193-152    0.474673D+00
   0   281    0.278926-157    0.756623-157    0.399985-153    0.474673D+00
   0   282    0.324853-158    0.877765-158    0.458074-154    0.474673D+00
   0   283    0.375178-159    0.101534-158    0.518451-155    0.474673D+00
   0   284    0.432947-160    0.116383-159    0.621157-156    0.474673D+00
   0   285    0.492225-161    0.133637-160    0.717727-157    0.474673D+00
   0   286    0.569684-162    0.152358-161    0.808356-158    0.474673D+00
   0   287    0.643054-163    0.173117-162    0.944470-159    0.474673D+00
   0   288    0.720413-164    0.195597-163    0.105459-159    0.474673D+00
   0   289    0.808622-165    0.219437-164    0.122931-160    0.474673D+00
   0   290    0.909482-166    0.246623-165    0.133113-161    0.474673D+00
   0   291    0.102835-166    0.275011-166    0.152159-162    0.474673D+00
   0   292    0.113054-167    0.305690-167    0.172410-163    0.474673D+00
   0   293    0.126928-168    0.338799-168    0.195307-164    0.474673D+00
   0   294    0.141234-169    0.374078-169    0.212239-165    0.474673D+00
   0   295    0.154311-170    0.412893-170    0.228056-166    0.474673D+00
   0   296    0.168465-171    0.451584-171    0.260778-167    0.474673D+00
   0   297    0.182697-172    0.491642-172    0.276442-168    0.474673D+00
   0   298    0.197973-173    0.537179-173    0.312516-169    0.474673D+00
   0   299    0.216109-174    0.584179-174    0.329285-170    0.474673D+00
   0   300    0.235651-175    0.632856-175    0.360094-171    0.474673D+00
   0   301    0.250494-176    0.675434-176    0.386435-172    0.474673D+00
   0   302    0.266745-177    0.720987-177    0.438534-173    0.474673D+00
   0   303    0.286650-178    0.768818-178    0.453955-174    0.474673D+00
   0   304    0.304053-179    0.811086-179    0.464832-175    0.474673D+00
   0   305    0.320880-180    0.855692-180    0.530685-176    0.474673D+00
   0   306    0.333498-181    0.901447-181    0.540113-177    0.474673D+00
   0   307    0.351547-182    0.948389-182    0.581035-178    0.474673D+00
   0   308    0.368357-183    0.990904-183    0.607530-179    0.474673D+00
   0   309    0.382462-184    0.102921-183    0.613509-180    0.474673D+00
   0   310    0.395159-185    0.106837-184    0.638120-181    0.474673D+00
   0   311    0.411419-186    0.110906-185    0.672520-182    0.474673D+00
   0   312    0.424332-187    0.114694-186    0.700459-183    0.474673D+00
   0   313    0.435743-188    0.117359-187    0.705490-184    0.474673D+00
   0   314    0.446970-189    0.120298-188    0.752662-185    0.474673D+00
   0   315    0.453230-190    0.122742-189    0.740240-186    0.474673D+00
   0   316    0.459664-191    0.123982-190    0.763659-187    0.474673D+00
   0   317    0.460914-192    0.124617-191    0.800430-188    0.474673D+00
   0   318    0.468302-193    0.125878-192    0.765170-189    0.474673D+00
   0   319    0.467721-194    0.125909-193    0.827992-190    0.474673D+00
   0   320    0.463728-195    0.125119-194    0.801627-191    0.474673D+00
   0   321    0.460334-196    0.124354-195    0.802126-192    0.474673D+00
   0   322    0.455236-197    0.123389-196    0.778439-193    0.474673D+00
   0   323    0.453495-198    0.122233-197    0.776924-194    0.474673D+00
   0   324    0.446095-199    0.120797-198    0.788835-195    0.474673D+00
   0   325    0.438989-200    0.118665-199    0.795311-196    0.474673D+00
   0   326    0.430383-201    0.116418-200    0.772822-197    0.474673D+00
   0   327    0.414306-202    0.113050-201    0.739862-198    0.474673D+00
   0   328    0.403426-203    0.109106-202    0.725166-199    0.474673D+00
   0   329    0.392217-204    0.105004-203    0.687869-200    0.474673D+00
   0   330    0.375033-205    0.101204-204    0.691989-201    0.474673D+00
   0   331    0.364673-206    0.972264-206    0.637558-202    0.474673D+00
   0   332    0.343677-207    0.929816-207    0.649078-203    0.474673D+00
   0   333    0.328248-208    0.879691-208    0.590927-204    0.474673D+00
   0   334    0.308724-209    0.832684-209    0.576184-205    0.474673D+00
   0   335    0.292033-210    0.787161-210    0.542212-206    0.474673D+00
   0   336    0.275972-211    0.741898-211    0.503899-207    0.474673D+00
   0   337    0.258303-212    0.697447-212    0.479871-208    0.474673D+00
   0   338    0.241511-213    0.653857-213    0.449452-209    0.474673D+00
   0   339    0.224959-214    0.611411-214    0.429369-210    0.474673D+00
   0   340    0.210093-215    0.567057-215    0.388382-211    0.474673D+00
   0   341    0.193690-216    0.526148-216    0.366278-212    0.474673D+00
   0   342    0.179439-217    0.485623-217    0.338699-213    0.474673D+00
   0   343    0.166631-218    0.445437-218    0.321959-214    0.474673D+00
   0   344    0.152970-219    0.407502-219    0.289628-215    0.474673D+00
   0   345    0.139362-220    0.372300-220    0.264719-216    0.474673D+00
   0   346    0.126296-221    0.339017-221    0.250263-217    0.474673D+00
   0   347    0.114595-222    0.307839-222    0.216821-218    0.474673D+00
   0   348    0.103481-223    0.277735-223    0.198796-219    0.474673D+00
   0   349    0.937785-225    0.249742-224    0.177237-220    0.474673D+00
   0   350    0.845370-226    0.225271-225    0.168828-221    0.474673D+00
   0   351    0.747953-227    0.200615-226    0.153043-222    0.474673D+00
   0   352    0.667763-228    0.177986-227    0.127780-223    0.474673D+00
   0   353    0.587562-229    0.158408-228    0.119443-224    0.474673D+00
   0   354    0.522583-230    0.139851-229    0.105708-225    0.474673D+00
   0   355    0.459670-231    0.123816-230    0.938031-227    0.474673D+00
   0   356    0.405677-232    0.108605-231    0.806244-228    0.474673D+00
   0   357    0.355116-233    0.947961-233    0.706075-229    0.474673D+00
   0   358    0.310473-234    0.827483-234    0.629775-230    0.474673D+00
   0   359    0.268171-235    0.718177-235    0.535071-231    0.474673D+00
   0   360    0.232156-236    0.624473-236    0.467833-232    0.474673D+00
   0   361    0.199041-237    0.538496-237    0.417952-233    0.474673D+00
   0   362    0.171094-238    0.461162-238    0.352562-234    0.474673D+00
   0   363    0.146433-239    0.392963-239    0.297166-235    0.474673D+00
   0   364    0.125143-240    0.335046-240    0.259051-236    0.474673D+00
   0   365    0.106324-241    0.285228-241    0.222104-237    0.474673D+00
   0   366    0.897008-243    0.241836-242    0.193097-238    0.474673D+00
   0   367    0.757418-244    0.204252-243    0.163961-239    0.474673D+00
   0   368    0.639750-245    0.172737-244    0.135874-240    0.474673D+00
   0   369    0.536450-246    0.145308-245    0.116594-241    0.474673D+00
   0   370    0.453003-247    0.121590-246    0.954052-243    0.474673D+00
   0   371    0.379439-248    0.101608-247    0.816355-244    0.474673D+00
   0   372    0.313289-249    0.846210-249    0.663548-245    0.474673D+00
   0   373    0.258933-250    0.702277-250    0.576234-246    0.474673D+00
   0   374    0.213401-251    0.580451-251    0.468052-247    0.474673D+00
   0   375    0.176425-252    0.477807-252    0.389427-248    0.474673D+00
   0   376    0.145206-253    0.392936-253    0.322126-249    0.474673D+00
   0   377    0.118015-254    0.321455-254    0.266288-250    0.474673D+00
   0   378    0.972529-256    0.261303-255    0.214017-251    0.474673D+00
   0   379    0.792438-257    0.213165-256    0.175665-252    0.474673D+00
   0   380    0.650438-258    0.172978-257    0.139336-253    0.474673D+00
   0   381    0.521808-259    0.139807-258    0.114804-254    0.474673D+00
   0   382    0.415296-260    0.112388-259    0.953436-256    0.474673D+00
   0   383    0.335238-261    0.903787-261    0.735387-257    0.474673D+00
   0   384    0.267864-262    0.724838-262    0.613463-258    0.474673D+00
   0   385    0.215989-263    0.576760-263    0.467510-259    0.474673D+00
   0   386    0.172275-264    0.460616-264    0.386003-260    0.474673D+00
   0   387    0.136679-265    0.365067-265    0.308184-261    0.474673D+00
   0   388    0.108149-266    0.288377-266    0.242285-262    0.474673D+00
   0   389    0.848377-268    0.226225-267    0.190394-263    0.474673D+00
   0   390    0.655112-269    0.176856-268    0.155021-264    0.474673D+00
   0   391    0.511842-270    0.137797-269    0.118139-265    0.474673D+00
   0   392    0.398241-271    0.107539-270    0.909639-267    0.474673D+00
   0   393    0.311314-272    0.832871-272    0.722813-268    0.474673D+00
   0   394    0.240385-273    0.642921-273    0.570867-269    0.474673D+00
   0   395    0.184572-274    0.497174-274    0.434785-270    0.474673D+00
   0   396    0.142679-275    0.383339-275    0.329388-271    0.474673D+00
   0   397    0.109585-276    0.294986-276    0.256674-272    0.474673D+00