variables =  "IG"  "JG"  "PHI"  "Temp."  "Latent_heat"  "mm"
ZONE  I=  401  J=  101
   0     0    0.100000D+01    0.795342D+00    0.000000D+00    0.328068D+00
   0     1    0.100000D+01    0.795342D+00    0.000000D+00    0.328068D+00
   0     2    0.100000D+01    0.797419D+00    0.000000D+00    0.327487D+00
   0     3    0.100000D+01    0.801547D+00    0.000000D+00    0.326311D+00
   0     4    0.100000D+01    0.807673D+00    0.000000D+00    0.324508D+00
   0     5    0.100000D+01    0.815720D+00    0.000000D+00    0.322032D+00
   0     6    0.100000D+01    0.825586D+00    0.000000D+00    0.318813D+00
   0     7    0.100000D+01    0.837147D+00    0.000000D+00    0.314761D+00
   0     8    0.100000D+01    0.850261D+00    0.000000D+00    0.309755D+00
   0     9    0.100000D+01    0.864767D+00    0.000000D+00    0.303641D+00
   0    10    0.100000D+01    0.880488D+00    0.000000D+00    0.296219D+00
   0    11    0.100000D+01    0.897237D+00    0.000000D+00    0.287236D+00
   0    12    0.100000D+01    0.914818D+00    0.000000D+00    0.276370D+00
   0    13    0.100000D+01    0.933026D+00    0.000000D+00    0.263222D+00
   0    14    0.100000D+01    0.951654D+00    0.000000D+00    0.247304D+00
   0    15    0.100000D+01    0.970493D+00    0.000000D+00    0.228049D+00
   0    16    0.100000D+01    0.989337D+00    0.000000D+00    0.204855D+00
   0    17    0.100000D+01    0.100798D+01    0.000000D+00    0.177193D+00
   0    18    0.100000D+01    0.102623D+01    0.000000D+00    0.144830D+00
   0    19    0.100000D+01    0.104388D+01    0.145853D-10    0.108139D+00
   0    20    0.100000D+01    0.106077D+01   -0.291706D-10    0.683866D-01
   0    21    0.100000D+01    0.107671D+01   -0.875117D-10    0.277073D-01
   0    22    0.100000D+01    0.109153D+01   -0.539656D-09   -0.113896D-01
   0    23    0.100000D+01    0.110509D+01   -0.463666D-07   -0.467618D-01
   0    24    0.100000D+01    0.111724D+01    0.135264D-06   -0.771207D-01
   0    25    0.100000D+01    0.112785D+01   -0.354277D-07   -0.102039D+00
   0    26    0.100000D+01    0.113678D+01    0.434245D-05   -0.121659D+00
   0    27    0.100000D+01    0.114392D+01   -0.960593D-05   -0.136372D+00
   0    28    0.999999D+00    0.114914D+01   -0.446016D-03   -0.146587D+00
   0    29    0.999995D+00    0.115233D+01   -0.218382D-02   -0.152599D+00
   0    30    0.999968D+00    0.115337D+01   -0.173449D-01   -0.154519D+00
   0    31    0.999805D+00    0.115213D+01    0.820327D-02   -0.152232D+00
   0    32    0.998848D+00    0.114848D+01    0.586066D+00   -0.145338D+00
   0    33    0.992992D+00    0.114224D+01    0.370901D+01   -0.132946D+00
   0    34    0.957131D+00    0.113302D+01    0.182451D+02   -0.113627D+00
   0    35    0.744732D+00    0.112266D+01    0.121673D+03   -0.872548D-01
   0    36    0.132346D+00    0.111167D+01    0.114363D+02   -0.621031D-01
   0    37    0.201765D-01    0.110171D+01   -0.100537D+02   -0.376227D-01
   0    38    0.383021D-02    0.109671D+01    0.134936D+01   -0.249359D-01
   0    39    0.132304D-02    0.109336D+01   -0.823591D+00   -0.161732D-01
   0    40    0.114862D-02    0.109045D+01    0.571432D-01   -0.850199D-02
   0    41    0.175096D-02    0.108805D+01   -0.167201D+00   -0.218775D-02
   0    42    0.304487D-02    0.108757D+01   -0.195421D+01   -0.885925D-03
   0    43    0.427850D-02    0.108868D+01    0.182874D+01   -0.360462D-02
   0    44    0.502878D-02    0.108892D+01    0.170001D+01   -0.414531D-02
   0    45    0.560654D-02    0.108680D+01    0.203877D+01    0.145368D-02
   0    46    0.634950D-02    0.108379D+01   -0.211032D+01    0.950156D-02
   0    47    0.714689D-02    0.107832D+01   -0.348999D+01    0.234671D-01
   0    48    0.795344D-02    0.107467D+01   -0.182370D+01    0.333381D-01
   0    49    0.848186D-02    0.107152D+01   -0.263478D+00    0.411558D-01
   0    50    0.882754D-02    0.107027D+01    0.294153D+01    0.446040D-01
   0    51    0.922083D-02    0.106948D+01    0.151789D+01    0.461977D-01
   0    52    0.963980D-02    0.106821D+01   -0.268043D+01    0.493948D-01
   0    53    0.106295D-01    0.106611D+01    0.405325D+01    0.548683D-01
   0    54    0.117437D-01    0.106440D+01    0.371203D+01    0.594553D-01
   0    55    0.130462D-01    0.106286D+01   -0.243718D+01    0.628760D-01
   0    56    0.141437D-01    0.106236D+01   -0.840119D+01    0.636669D-01
   0    57    0.150013D-01    0.106247D+01    0.855361D+01    0.638725D-01
   0    58    0.160093D-01    0.106447D+01   -0.760191D+01    0.593662D-01
   0    59    0.167576D-01    0.106599D+01    0.495042D+01    0.558684D-01
   0    60    0.174557D-01    0.106817D+01   -0.443574D+01    0.495346D-01
   0    61    0.185810D-01    0.106971D+01   -0.102668D+02    0.458355D-01
   0    62    0.188382D-01    0.107103D+01   -0.388060D+01    0.421684D-01
   0    63    0.193570D-01    0.107384D+01   -0.104932D+02    0.344546D-01
   0    64    0.197759D-01    0.107747D+01    0.125880D+02    0.256786D-01
   0    65    0.207348D-01    0.108217D+01    0.708284D+01    0.142022D-01
   0    66    0.213162D-01    0.108438D+01    0.630391D+00    0.624240D-02
   0    67    0.216005D-01    0.108850D+01    0.439963D+01   -0.349838D-02
   0    68    0.219373D-01    0.108989D+01   -0.628083D+01   -0.695360D-02
   0    69    0.227761D-01    0.109109D+01   -0.558244D+01   -0.106244D-01
   0    70    0.226707D-01    0.109289D+01    0.362011D+01   -0.140186D-01
   0    71    0.233494D-01    0.109539D+01   -0.109265D+02   -0.229648D-01
   0    72    0.232093D-01    0.109862D+01   -0.118587D+01   -0.292950D-01
   0    73    0.237423D-01    0.109923D+01   -0.145254D+02   -0.328481D-01
   0    74    0.241169D-01    0.110081D+01    0.317575D+01   -0.359377D-01
   0    75    0.246436D-01    0.110334D+01   -0.636590D+01   -0.422448D-01
   0    76    0.254488D-01    0.110483D+01    0.424986D+01   -0.477370D-01
   0    77    0.255767D-01    0.110678D+01   -0.175754D+01   -0.515667D-01
   0    78    0.262362D-01    0.110690D+01   -0.107000D+02   -0.527001D-01
   0    79    0.265293D-01    0.110687D+01   -0.120889D+02   -0.524782D-01
   0    80    0.271409D-01    0.110800D+01    0.144036D+01   -0.541962D-01
   0    81    0.275836D-01    0.111003D+01    0.103521D+02   -0.590323D-01
   0    82    0.280706D-01    0.110812D+01   -0.100244D+02   -0.559492D-01
   0    83    0.291349D-01    0.110728D+01   -0.172632D+00   -0.518414D-01
   0    84    0.297922D-01    0.110774D+01    0.126181D+02   -0.514534D-01
   0    85    0.308913D-01    0.110731D+01    0.642418D+01   -0.514050D-01
   0    86    0.318401D-01    0.110693D+01   -0.157690D+01   -0.515439D-01
   0    87    0.328422D-01    0.110440D+01    0.118091D+02   -0.445921D-01
   0    88    0.343115D-01    0.110385D+01    0.224914D+02   -0.421613D-01
   0    89    0.364668D-01    0.110056D+01    0.859012D+01   -0.344791D-01
   0    90    0.379144D-01    0.110032D+01    0.151712D+01   -0.357992D-01
   0    91    0.395909D-01    0.109778D+01   -0.100541D+02   -0.287362D-01
   0    92    0.415367D-01    0.109602D+01   -0.148120D+02   -0.221367D-01
   0    93    0.439794D-01    0.109433D+01   -0.131231D+02   -0.165446D-01
   0    94    0.466915D-01    0.109068D+01   -0.160001D+02   -0.101486D-01
   0    95    0.496403D-01    0.108608D+01   -0.160922D+02    0.337392D-02
   0    96    0.537145D-01    0.108543D+01    0.759087D+00    0.558197D-02
   0    97    0.600223D-01    0.107950D+01   -0.290013D+02    0.193890D-01
   0    98    0.680058D-01    0.107774D+01    0.984738D+01    0.280044D-01
   0    99    0.774979D-01    0.107841D+01   -0.293148D+02    0.250721D-01
   0   100    0.891660D-01    0.107238D+01   -0.570696D+02    0.381223D-01
   0   101    0.100160D+00    0.107652D+01    0.137877D+01    0.297184D-01
   0   102    0.109822D+00    0.107524D+01    0.484111D+02    0.300052D-01
   0   103    0.123414D+00    0.107729D+01   -0.364724D+02    0.230839D-01
   0   104    0.136665D+00    0.108046D+01   -0.316604D+02    0.196437D-01
   0   105    0.147846D+00    0.108312D+01   -0.177813D+02    0.127593D-01
   0   106    0.161745D+00    0.108610D+01    0.479689D+00    0.622743D-02
   0   107    0.172653D+00    0.109118D+01    0.128688D+02   -0.107267D-01
   0   108    0.183395D+00    0.110241D+01    0.703043D+02   -0.394043D-01
   0   109    0.204376D+00    0.110595D+01   -0.106742D+03   -0.477886D-01
   0   110    0.220997D+00    0.111319D+01   -0.130671D+03   -0.636623D-01
   0   111    0.240323D+00    0.111673D+01   -0.732126D+02   -0.761576D-01
   0   112    0.265030D+00    0.110718D+01   -0.872470D+02   -0.487344D-01
   0   113    0.276033D+00    0.105774D+01    0.825104D+02    0.776478D-01
   0   114    0.175361D+00    0.899404D+00    0.117025D+03    0.288357D+00
   0   115    0.603265D-01    0.556623D+00    0.726023D+02    0.366437D+00
   0   116    0.154914D-01    0.283897D+00    0.275811D+02    0.382672D+00
   0   117    0.381054D-02    0.131197D+00    0.479023D+01    0.387808D+00
   0   118    0.847154D-03    0.574159D-01    0.183486D+01    0.389750D+00
   0   119    0.186916D-03    0.243812D-01    0.446074D+00    0.390533D+00
   0   120    0.410319D-04    0.101667D-01    0.819902D-01    0.390856D+00
   0   121    0.872704D-05    0.418944D-02    0.200335D-01    0.390989D+00
   0   122    0.184581D-05    0.171267D-02    0.384949D-02    0.391043D+00
   0   123    0.384796D-06    0.696327D-03    0.877878D-03    0.391066D+00
   0   124    0.806253D-07    0.282012D-03    0.168284D-03    0.391075D+00
   0   125    0.165796D-07    0.113893D-03    0.294653D-04    0.391079D+00
   0   126    0.341201D-08    0.459020D-04    0.893594D-05    0.391080D+00
   0   127    0.687893D-09    0.184713D-04    0.178088D-05    0.391081D+00
   0   128    0.138136D-09    0.742453D-05    0.308189D-06    0.391081D+00
   0   129    0.282442D-10    0.298175D-05    0.577910D-07    0.391081D+00
   0   130    0.560230D-11    0.119674D-05    0.943991D-08    0.391081D+00
   0   131    0.111584D-11    0.480100D-06    0.247699D-08    0.391081D+00
   0   132    0.225141D-12    0.192540D-06    0.610444D-09    0.391081D+00
   0   133    0.444378D-13    0.771989D-07    0.110766D-09    0.391081D+00
   0   134    0.893083D-14    0.309484D-07    0.209667D-10    0.391081D+00
   0   135    0.176002D-14    0.124059D-07    0.394249D-11    0.391081D+00
   0   136    0.351526D-15    0.497277D-08    0.986745D-12    0.391081D+00
   0   137    0.711489D-16    0.199326D-08    0.120242D-12    0.391081D+00
   0   138    0.140158D-16    0.798967D-09    0.326002D-13    0.391081D+00
   0   139    0.273461D-17    0.320257D-09    0.557211D-14    0.391081D+00
   0   140    0.538893D-18    0.128372D-09    0.101705D-14    0.391081D+00
   0   141    0.107487D-18    0.514562D-10    0.209901D-15    0.391081D+00
   0   142    0.211599D-19    0.206251D-10    0.370709D-16    0.391081D+00
   0   143    0.416496D-20    0.826677D-11    0.941274D-17    0.391081D+00
   0   144    0.813083D-21    0.331319D-11    0.239162D-17    0.391081D+00
   0   145    0.165291D-21    0.132776D-11    0.406654D-18    0.391081D+00
   0   146    0.322214D-22    0.532037D-12    0.931916D-19    0.391081D+00
   0   147    0.626355D-23    0.213160D-12    0.163188D-19    0.391081D+00
   0   148    0.122374D-23    0.853892D-13    0.292912D-20    0.391081D+00
   0   149    0.242406D-24    0.341999D-13    0.440219D-21    0.391081D+00
   0   150    0.472047D-25    0.136951D-13    0.103654D-21    0.391081D+00
   0   151    0.951795D-26    0.548299D-14    0.177471D-22    0.391081D+00
   0   152    0.188192D-26    0.219472D-14    0.324931D-23    0.391081D+00
   0   153    0.371821D-27    0.878309D-15    0.698758D-24    0.391081D+00
   0   154    0.721392D-28    0.351414D-15    0.212930D-24    0.391081D+00
   0   155    0.142671D-28    0.140571D-15    0.365487D-25    0.391081D+00
   0   156    0.278189D-29    0.562178D-16    0.555780D-26    0.391081D+00
   0   157    0.542705D-30    0.224780D-16    0.105147D-26    0.391081D+00
   0   158    0.106729D-30    0.898555D-17    0.257659D-27    0.391081D+00
   0   159    0.211224D-31    0.359120D-17    0.383699D-28    0.391081D+00
   0   160    0.406302D-32    0.143496D-17    0.106250D-28    0.391081D+00
   0   161    0.790948D-33    0.573260D-18    0.151769D-29    0.391081D+00
   0   162    0.157292D-33    0.228967D-18    0.277133D-30    0.391081D+00
   0   163    0.305298D-34    0.914337D-19    0.772005D-31    0.391081D+00
   0   164    0.590914D-35    0.365049D-19    0.132272D-31    0.391081D+00
   0   165    0.116243D-35    0.145716D-19    0.306447D-32    0.391081D+00
   0   166    0.232021D-36    0.581537D-20    0.448697D-33    0.391081D+00
   0   167    0.459430D-37    0.232038D-20    0.115216D-33    0.391081D+00
   0   168    0.896857D-38    0.925658D-21    0.230641D-34    0.391081D+00
   0   169    0.176702D-38    0.369192D-21    0.376835D-35    0.391081D+00
   0   170    0.347434D-39    0.147218D-21    0.793380D-36    0.391081D+00
   0   171    0.687749D-40    0.586917D-22    0.179594D-36    0.391081D+00
   0   172    0.137226D-40    0.233935D-22    0.367691D-37    0.391081D+00
   0   173    0.263574D-41    0.932214D-23    0.779271D-38    0.391081D+00
   0   174    0.518191D-42    0.371393D-23    0.142880D-38    0.391081D+00
   0   175    0.101080D-42    0.147927D-23    0.168037D-39    0.391081D+00
   0   176    0.199087D-43    0.589051D-24    0.517495D-40    0.391081D+00
   0   177    0.396051D-44    0.234502D-24    0.106025D-40    0.391081D+00
   0   178    0.767043D-45    0.933311D-25    0.177307D-41    0.391081D+00
   0   179    0.151675D-45    0.371354D-25    0.317176D-42    0.391081D+00
   0   180    0.299781D-46    0.147716D-25    0.775968D-43    0.391081D+00
   0   181    0.589641D-47    0.587406D-26    0.100583D-43    0.391081D+00
   0   182    0.114101D-47    0.233517D-26    0.208181D-44    0.391081D+00
   0   183    0.230998D-48    0.928033D-27    0.333677D-45    0.391081D+00
   0   184    0.452851D-49    0.368694D-27    0.833410D-46    0.391081D+00
   0   185    0.896627D-50    0.146428D-27    0.180853D-46    0.391081D+00
   0   186    0.172895D-50    0.581334D-28    0.298102D-47    0.391081D+00
   0   187    0.342304D-51    0.230711D-28    0.564969D-48    0.391081D+00
   0   188    0.692874D-52    0.915258D-29    0.109515D-48    0.391081D+00
   0   189    0.134890D-52    0.362947D-29    0.310616D-49    0.391081D+00
   0   190    0.259833D-53    0.143866D-29    0.696005D-50    0.391081D+00
   0   191    0.512772D-54    0.570007D-30    0.139562D-50    0.391081D+00
   0   192    0.100167D-54    0.225734D-30    0.265585D-51    0.391081D+00
   0   193    0.200332D-55    0.893510D-31    0.501724D-52    0.391081D+00
   0   194    0.400831D-56    0.353487D-31    0.827089D-53    0.391081D+00
   0   195    0.766689D-57    0.139768D-31    0.166367D-53    0.391081D+00
   0   196    0.148891D-57    0.552318D-32    0.332935D-54    0.391081D+00
   0   197    0.287146D-58    0.218123D-32    0.852717D-55    0.391081D+00
   0   198    0.578544D-59    0.860858D-33    0.153622D-55    0.391081D+00
   0   199    0.114330D-59    0.339517D-33    0.324680D-56    0.391081D+00
   0   200    0.225680D-60    0.133806D-33    0.593062D-57    0.391081D+00
   0   201    0.435881D-61    0.526935D-34    0.902324D-58    0.391081D+00
   0   202    0.870044D-62    0.207342D-34    0.165920D-58    0.391081D+00
   0   203    0.168775D-62    0.815165D-35    0.311958D-59    0.391081D+00
   0   204    0.330989D-63    0.320196D-35    0.787075D-60    0.391081D+00
   0   205    0.632310D-64    0.125654D-35    0.188747D-60    0.391081D+00
   0   206    0.121974D-64    0.492616D-36    0.308549D-61    0.391081D+00
   0   207    0.243054D-65    0.192926D-36    0.639024D-62    0.391081D+00
   0   208    0.482837D-66    0.754751D-37    0.129573D-62    0.391081D+00
   0   209    0.964031D-67    0.294934D-37    0.250731D-63    0.391081D+00
   0   210    0.188791D-67    0.115115D-37    0.307264D-64    0.391081D+00
   0   211    0.367677D-68    0.448754D-38    0.866024D-65    0.391081D+00
   0   212    0.727878D-69    0.174715D-38    0.197772D-65    0.391081D+00
   0   213    0.140623D-69    0.679320D-39    0.264795D-66    0.391081D+00
   0   214    0.274891D-70    0.263768D-39    0.626406D-67    0.391081D+00
   0   215    0.546984D-71    0.102271D-39    0.118582D-67    0.391081D+00
   0   216    0.109020D-71    0.395953D-40    0.218407D-68    0.391081D+00
   0   217    0.212290D-72    0.153065D-40    0.398919D-69    0.391081D+00
   0   218    0.419981D-73    0.590783D-41    0.975348D-70    0.391081D+00
   0   219    0.821817D-74    0.227657D-41    0.208967D-70    0.391081D+00
   0   220    0.159920D-74    0.875822D-42    0.451448D-71    0.391081D+00
   0   221    0.311203D-75    0.336366D-42    0.653824D-72    0.391081D+00
   0   222    0.613807D-76    0.128959D-42    0.160036D-72    0.391081D+00
   0   223    0.120634D-76    0.493533D-43    0.264181D-73    0.391081D+00
   0   224    0.239287D-77    0.188533D-43    0.482402D-74    0.391081D+00
   0   225    0.462091D-78    0.718866D-44    0.129863D-74    0.391081D+00
   0   226    0.896033D-79    0.273578D-44    0.230781D-75    0.391081D+00
   0   227    0.174378D-79    0.103913D-44    0.332010D-76    0.391081D+00
   0   228    0.341537D-80    0.393914D-45    0.877875D-77    0.391081D+00
   0   229    0.658061D-81    0.149024D-45    0.147911D-77    0.391081D+00
   0   230    0.128620D-81    0.562629D-46    0.294018D-78    0.391081D+00
   0   231    0.254687D-82    0.211974D-46    0.522185D-79    0.391081D+00
   0   232    0.497070D-83    0.796940D-47    0.140212D-79    0.391081D+00
   0   233    0.981163D-84    0.298977D-47    0.253471D-80    0.391081D+00
   0   234    0.195899D-84    0.111919D-47    0.515975D-81    0.391081D+00
   0   235    0.380509D-85    0.418037D-48    0.103814D-81    0.391081D+00
   0   236    0.743469D-86    0.155796D-48    0.187341D-82    0.391081D+00
   0   237    0.146044D-86    0.579319D-49    0.310149D-83    0.391081D+00
   0   238    0.289730D-87    0.214926D-49    0.442922D-84    0.391081D+00
   0   239    0.565286D-88    0.795533D-50    0.128864D-84    0.391081D+00
   0   240    0.109463D-88    0.293776D-50    0.318681D-85    0.391081D+00
   0   241    0.216201D-89    0.108232D-50    0.528995D-86    0.391081D+00
   0   242    0.418596D-90    0.397797D-51    0.745833D-87    0.391081D+00
   0   243    0.825778D-91    0.145858D-51    0.129209D-87    0.391081D+00
   0   244    0.161822D-91    0.533521D-52    0.427934D-88    0.391081D+00
   0   245    0.314343D-92    0.194679D-52    0.645742D-89    0.391081D+00
   0   246    0.612215D-93    0.708636D-53    0.157566D-89    0.391081D+00
   0   247    0.121357D-93    0.257311D-53    0.317989D-90    0.391081D+00
   0   248    0.238835D-94    0.932002D-54    0.652619D-91    0.391081D+00
   0   249    0.457329D-95    0.336739D-54    0.133861D-91    0.391081D+00
   0   250    0.906446D-96    0.121361D-54    0.151722D-92    0.391081D+00
   0   251    0.176469D-96    0.436287D-55    0.430984D-93    0.391081D+00
   0   252    0.350502D-97    0.156446D-55    0.797761D-94    0.391081D+00
   0   253    0.693647D-98    0.559567D-56    0.112032D-94    0.391081D+00
   0   254    0.134019D-98    0.199631D-56    0.302794D-95    0.391081D+00
   0   255    0.262708D-99    0.710380D-57    0.455193D-96    0.391081D+00
   0   256    0.515247-100    0.252135D-57    0.112540D-96    0.391081D+00
   0   257    0.996993-101    0.892593D-58    0.211606D-97    0.391081D+00
   0   258    0.195982-101    0.315171D-58    0.441074D-98    0.391081D+00
   0   259    0.379502-102    0.110996D-58    0.683733D-99    0.391081D+00
   0   260    0.757076-103    0.389885D-59    0.183034D-99    0.391081D+00
   0   261    0.147984-103    0.136593D-59    0.261319-100    0.391081D+00
   0   262    0.294325-104    0.477286D-60    0.622315-101    0.391081D+00
   0   263    0.563607-105    0.166336D-60    0.160291-101    0.391081D+00
   0   264    0.109199-105    0.578163D-61    0.293794-102    0.391081D+00
   0   265    0.219607-106    0.200432D-61    0.570553-103    0.391081D+00
   0   266    0.430463-107    0.692998D-62    0.725272-104    0.391081D+00
   0   267    0.845815-108    0.238971D-62    0.140910-104    0.391081D+00
   0   268    0.164159-108    0.821877D-63    0.348065-105    0.391081D+00
   0   269    0.311705-109    0.281911D-63    0.833259-106    0.391081D+00
   0   270    0.607890-110    0.964408D-64    0.119139-106    0.391081D+00
   0   271    0.120601-110    0.329042D-64    0.218016-107    0.391081D+00
   0   272    0.234337-111    0.111965D-64    0.419698-108    0.391081D+00
   0   273    0.462390-112    0.379974D-65    0.856819-109    0.391081D+00
   0   274    0.892165-113    0.128607D-65    0.230844-109    0.391081D+00
   0   275    0.174653-113    0.434121D-66    0.432372-110    0.391081D+00
   0   276    0.337362-114    0.146149D-66    0.933392-111    0.391081D+00
   0   277    0.664227-115    0.490700D-67    0.159091-111    0.391081D+00
   0   278    0.129788-115    0.164313D-67    0.362104-112    0.391081D+00
   0   279    0.256934-116    0.548739D-68    0.560775-113    0.391081D+00
   0   280    0.493104-117    0.182765D-68    0.112858-113    0.391081D+00
   0   281    0.976980-118    0.607094D-69    0.241693-114    0.391081D+00
   0   282    0.188687-118    0.201119D-69    0.462861-115    0.391081D+00
   0   283    0.371698-119    0.664488D-70    0.841056-116    0.391081D+00
   0   284    0.738250-120    0.218955D-70    0.164670-116    0.391081D+00
   0   285    0.143576-120    0.719544D-71    0.311336-117    0.391081D+00
   0   286    0.284612-121    0.235828D-71    0.540285-118    0.391081D+00
   0   287    0.549830-122    0.770849D-72    0.127546-118    0.391081D+00
   0   288    0.106483-122    0.251292D-72    0.259925-119    0.391081D+00
   0   289    0.206611-123    0.817006D-73    0.436756-120    0.391081D+00
   0   290    0.404626-124    0.264916D-73    0.105744-120    0.391081D+00
   0   291    0.807149-125    0.856700D-74    0.184464-121    0.391081D+00
   0   292    0.158302-125    0.276304D-74    0.430941-122    0.391081D+00
   0   293    0.304452-126    0.888759D-75    0.632414-123    0.391081D+00
   0   294    0.603993-127    0.285115D-75    0.164744-123    0.391081D+00
   0   295    0.119295-127    0.912214D-76    0.248950-124    0.391081D+00
   0   296    0.227367-128    0.291081D-76    0.564784-125    0.391081D+00
   0   297    0.448215-129    0.926345D-77    0.754915-126    0.391081D+00
   0   298    0.882271-130    0.294018D-77    0.159871-126    0.391081D+00
   0   299    0.176439-130    0.930721D-78    0.392736-127    0.391081D+00
   0   300    0.336687-131    0.293839D-78    0.939633-128    0.391081D+00
   0   301    0.646958-132    0.925219D-79    0.180375-128    0.391081D+00
   0   302    0.124559-132    0.290554D-79    0.357616-129    0.391081D+00
   0   303    0.244811-133    0.910031D-80    0.419018-130    0.391081D+00
   0   304    0.475070-134    0.284272D-80    0.139643-130    0.391081D+00
   0   305    0.926543-135    0.885652D-81    0.217803-131    0.391081D+00
   0   306    0.180161-135    0.275197D-81    0.355086-132    0.391081D+00
   0   307    0.348467-136    0.852855D-82    0.930616-133    0.391081D+00
   0   308    0.680709-137    0.263609D-82    0.181491-133    0.391081D+00
   0   309    0.133652-137    0.812646D-83    0.335147-134    0.391081D+00
   0   310    0.258762-138    0.249861D-83    0.704364-135    0.391081D+00
   0   311    0.500530-139    0.766218D-84    0.129675-135    0.391081D+00
   0   312    0.974361-140    0.234350D-84    0.184408-136    0.391081D+00
   0   313    0.188093-140    0.714889D-85    0.361336-137    0.391081D+00
   0   314    0.368746-141    0.217507D-85    0.773911-138    0.391081D+00
   0   315    0.729745-142    0.660042D-86    0.160944-138    0.391081D+00
   0   316    0.141423-142    0.199772D-86    0.342149-139    0.391081D+00
   0   317    0.279065-143    0.603062D-87    0.615584-140    0.391081D+00
   0   318    0.542948-144    0.181576D-87    0.122959-140    0.391081D+00
   0   319    0.104629-144    0.545283D-88    0.266823-141    0.391081D+00
   0   320    0.202644-145    0.163326D-88    0.579573-142    0.391081D+00
   0   321    0.399479-146    0.487936D-89    0.812048-143    0.391081D+00
   0   322    0.783011-147    0.145393D-89    0.165421-143    0.391081D+00
   0   323    0.154578-147    0.432113D-90    0.386302-144    0.391081D+00
   0   324    0.299576-148    0.128094D-90    0.741391-145    0.391081D+00
   0   325    0.578784-149    0.378736D-91    0.120372-145    0.391081D+00
   0   326    0.115478-149    0.111693D-91    0.172681-146    0.391081D+00
   0   327    0.228872-150    0.328545D-92    0.537216-147    0.391081D+00
   0   328    0.441379-151    0.963934D-93    0.127539-147    0.391081D+00
   0   329    0.866748-152    0.282087D-93    0.231780-148    0.391081D+00
   0   330    0.163774-152    0.823391D-94    0.341163-149    0.391081D+00
   0   331    0.320901-153    0.239727D-94    0.595960-150    0.391081D+00
   0   332    0.614130-154    0.696170D-95    0.121963-150    0.391081D+00
   0   333    0.120488-154    0.201653D-95    0.296379-151    0.391081D+00
   0   334    0.230026-155    0.582623D-96    0.528142-152    0.391081D+00
   0   335    0.452263-156    0.167905D-96    0.112091-152    0.391081D+00
   0   336    0.878227-157    0.482654D-97    0.156617-153    0.391081D+00
   0   337    0.167094-157    0.138390D-97    0.339276-154    0.391081D+00
   0   338    0.331983-158    0.395799D-98    0.897679-155    0.391081D+00
   0   339    0.643991-159    0.112913D-98    0.122107-155    0.391081D+00
   0   340    0.127664-159    0.321304D-99    0.208463-156    0.391081D+00
   0   341    0.244967-160    0.911993-100    0.652956-157    0.391081D+00
   0   342    0.476918-161    0.258210-100    0.103826-157    0.391081D+00
   0   343    0.941716-162    0.729226-101    0.257801-158    0.391081D+00
   0   344    0.178651-162    0.205429-101    0.418287-159    0.391081D+00
   0   345    0.345427-163    0.577258-102    0.905653-160    0.391081D+00
   0   346    0.672574-164    0.161805-102    0.157201-160    0.391081D+00
   0   347    0.130323-164    0.452405-103    0.215687-161    0.391081D+00
   0   348    0.256585-165    0.126177-103    0.514947-162    0.391081D+00
   0   349    0.490719-166    0.351034-104    0.134288-162    0.391081D+00
   0   350    0.936450-167    0.974178-105    0.210633-163    0.391081D+00
   0   351    0.181111-167    0.269680-105    0.478946-164    0.391081D+00
   0   352    0.357269-168    0.744700-106    0.819333-165    0.391081D+00
   0   353    0.703097-169    0.205135-106    0.119031-165    0.391081D+00
   0   354    0.136146-169    0.563667-107    0.307799-166    0.391081D+00
   0   355    0.263158-170    0.154502-107    0.739336-167    0.391081D+00
   0   356    0.513049-171    0.422451-108    0.128775-167    0.391081D+00
   0   357    0.100171-171    0.115226-108    0.248622-168    0.391081D+00
   0   358    0.189727-172    0.313512-109    0.453435-169    0.391081D+00
   0   359    0.363046-173    0.850933-110    0.108080-169    0.391081D+00
   0   360    0.699880-174    0.230395-110    0.173258-170    0.391081D+00
   0   361    0.133238-174    0.622283-111    0.376930-171    0.391081D+00
   0   362    0.260808-175    0.167666-111    0.696049-172    0.391081D+00
   0   363    0.506453-176    0.450652-112    0.104927-172    0.391081D+00
   0   364    0.969744-177    0.120832-112    0.253993-173    0.391081D+00
   0   365    0.189652-177    0.323197-113    0.332115-174    0.391081D+00
   0   366    0.364660-178    0.862383-114    0.100776-174    0.391081D+00
   0   367    0.701604-179    0.229552-114    0.171030-175    0.391081D+00
   0   368    0.136172-179    0.609555-115    0.312790-176    0.391081D+00
   0   369    0.263846-180    0.161472-115    0.454068-177    0.391081D+00
   0   370    0.515146-181    0.426711-116    0.105568-177    0.391081D+00
   0   371    0.978253-182    0.112493-116    0.218665-178    0.391081D+00
   0   372    0.185293-182    0.295853-117    0.510207-179    0.391081D+00
   0   373    0.347638-183    0.776220-118    0.784682-180    0.391081D+00
   0   374    0.679501-184    0.203168-118    0.118369-180    0.391081D+00
   0   375    0.131593-184    0.530500-119    0.222428-181    0.391081D+00
   0   376    0.250986-185    0.138191-119    0.542445-182    0.391081D+00
   0   377    0.484452-186    0.359122-120    0.866385-183    0.391081D+00
   0   378    0.922521-187    0.931045-121    0.274927-183    0.391081D+00
   0   379    0.178621-187    0.240806-121    0.390391-184    0.391081D+00
   0   380    0.339746-188    0.621350-122    0.781759-185    0.391081D+00
   0   381    0.650337-189    0.159947-122    0.113052-185    0.391081D+00
   0   382    0.123461-189    0.410764-123    0.245512-186    0.391081D+00
   0   383    0.238299-190    0.105240-123    0.431447-187    0.391081D+00
   0   384    0.453053-191    0.268999-124    0.107782-187    0.391081D+00
   0   385    0.874037-192    0.685959-125    0.226174-188    0.391081D+00
   0   386    0.163603-192    0.174512-125    0.319082-189    0.391081D+00
   0   387    0.310170-193    0.442932-126    0.664171-190    0.391081D+00
   0   388    0.598472-194    0.112158-126    0.147356-190    0.391081D+00
   0   389    0.114850-194    0.283343-127    0.321891-191    0.391081D+00
   0   390    0.217664-195    0.714136-128    0.445360-192    0.391081D+00
   0   391    0.407961-196    0.179572-128    0.864368-193    0.391081D+00
   0   392    0.786250-197    0.450492-129    0.199390-193    0.391081D+00
   0   393    0.148781-197    0.112753-129    0.340024-194    0.391081D+00
   0   394    0.276781-198    0.281555-130    0.711223-195    0.391081D+00
   0   395    0.520490-199    0.701447-131    0.104969-195    0.391081D+00
   0   396    0.972146-200    0.174348-131    0.185054-196    0.391081D+00
   0   397    0.179573-200    0.432271-132    0.550866-197    0.391081D+00