variables =  "IG"  "JG"  "PHI"  "Temp."  "Latent_heat"  "mm"
ZONE  I=  401  J=  101
   0     0    0.100000D+01    0.445019D+00    0.000000D+00    0.374495D+00
   0     1    0.100000D+01    0.445019D+00    0.000000D+00    0.374495D+00
   0     2    0.100000D+01    0.456322D+00    0.000000D+00    0.373775D+00
   0     3    0.100000D+01    0.478495D+00    0.000000D+00    0.372287D+00
   0     4    0.100000D+01    0.510708D+00    0.000000D+00    0.369927D+00
   0     5    0.100000D+01    0.551781D+00    0.000000D+00    0.366519D+00
   0     6    0.100000D+01    0.600260D+00    0.000000D+00    0.361784D+00
   0     7    0.100000D+01    0.654509D+00    0.000000D+00    0.355286D+00
   0     8    0.100000D+01    0.712797D+00    0.145853D-10    0.346328D+00
   0     9    0.100000D+01    0.773395D+00    0.131268D-09    0.333768D+00
   0    10    0.100000D+01    0.834656D+00    0.119599D-08    0.315644D+00
   0    11    0.100000D+01    0.895083D+00    0.124412D-07    0.288431D+00
   0    12    0.100000D+01    0.953383D+00    0.105437D-06    0.245627D+00
   0    13    0.100000D+01    0.100850D+01    0.578204D-06    0.176255D+00
   0    14    0.100000D+01    0.105963D+01    0.702261D-05    0.710473D-01
   0    15    0.100000D+01    0.110623D+01    0.439465D-04   -0.498049D-01
   0    16    0.100000D+01    0.114798D+01    0.304421D-03   -0.144454D+00
   0    17    0.999999D+00    0.118476D+01    0.140035D-02   -0.204438D+00
   0    18    0.999997D+00    0.121665D+01    0.215585D-02   -0.241435D+00
   0    19    0.999989D+00    0.124382D+01    0.157963D-01   -0.265092D+00
   0    20    0.999966D+00    0.126652D+01    0.319415D-01   -0.280827D+00
   0    21    0.999903D+00    0.128499D+01    0.185374D+00   -0.291553D+00
   0    22    0.999751D+00    0.129932D+01    0.366326D+00   -0.298839D+00
   0    23    0.999356D+00    0.130937D+01    0.441406D+00   -0.303479D+00
   0    24    0.998441D+00    0.131459D+01    0.937734D+00   -0.305743D+00
   0    25    0.996455D+00    0.131387D+01    0.167092D+01   -0.305399D+00
   0    26    0.991865D+00    0.130498D+01    0.118109D+02   -0.301420D+00
   0    27    0.981744D+00    0.128451D+01    0.218741D+02   -0.291138D+00
   0    28    0.959366D+00    0.125017D+01    0.495599D+02   -0.269306D+00
   0    29    0.910633D+00    0.119871D+01    0.654815D+02   -0.220951D+00
   0    30    0.800351D+00    0.110549D+01    0.153800D+03   -0.433145D-01
   0    31    0.486835D+00    0.924977D+00    0.600078D+03    0.271875D+00
   0    32    0.125275D+00    0.517662D+00    0.288168D+03    0.369654D+00
   0    33    0.250595D-01    0.241156D+00    0.657140D+02    0.384293D+00
   0    34    0.493017D-02    0.104477D+00    0.113155D+02    0.388545D+00
   0    35    0.964360D-03    0.437937D-01    0.166130D+01    0.390079D+00
   0    36    0.187287D-03    0.180333D-01    0.495732D+00    0.390678D+00
   0    37    0.372718D-04    0.734248D-02    0.586181D-01    0.390919D+00
   0    38    0.732783D-05    0.296627D-02    0.129091D-01    0.391016D+00
   0    39    0.144609D-05    0.119004D-02    0.233852D-02    0.391055D+00
   0    40    0.281959D-06    0.474304D-03    0.732204D-03    0.391071D+00
   0    41    0.562178D-07    0.187794D-03    0.114357D-03    0.391077D+00
   0    42    0.109621D-07    0.738491D-04    0.267230D-04    0.391080D+00
   0    43    0.219739D-08    0.288348D-04    0.491227D-05    0.391081D+00
   0    44    0.437321D-09    0.111749D-04    0.696406D-06    0.391081D+00
   0    45    0.853509D-10    0.429697D-05    0.212524D-06    0.391081D+00
   0    46    0.168342D-10    0.163875D-05    0.421707D-07    0.391081D+00
   0    47    0.330841D-11    0.619644D-06    0.775405D-08    0.391081D+00
   0    48    0.643454D-12    0.232221D-06    0.121791D-08    0.391081D+00
   0    49    0.128497D-12    0.862282D-07    0.243362D-09    0.391081D+00
   0    50    0.254474D-13    0.317147D-07    0.675877D-10    0.391081D+00
   0    51    0.504063D-14    0.115508D-07    0.116840D-10    0.391081D+00
   0    52    0.994996D-15    0.416489D-08    0.215594D-11    0.391081D+00
   0    53    0.194251D-15    0.148638D-08    0.377044D-12    0.391081D+00
   0    54    0.374435D-16    0.524942D-09    0.101307D-12    0.391081D+00
   0    55    0.733821D-17    0.183429D-09    0.214787D-13    0.391081D+00
   0    56    0.141326D-17    0.634068D-10    0.394371D-14    0.391081D+00
   0    57    0.277559D-18    0.216799D-10    0.781720D-15    0.391081D+00
   0    58    0.549127D-19    0.733138D-11    0.140936D-15    0.391081D+00
   0    59    0.107195D-19    0.245177D-11    0.265965D-16    0.391081D+00
   0    60    0.201887D-20    0.810790D-12    0.630622D-17    0.391081D+00
   0    61    0.393660D-21    0.265122D-12    0.881300D-18    0.391081D+00
   0    62    0.777634D-22    0.857176D-13    0.162496D-18    0.391081D+00
   0    63    0.153296D-22    0.274012D-13    0.335928D-19    0.391081D+00
   0    64    0.294596D-23    0.866030D-14    0.834096D-20    0.391081D+00
   0    65    0.557549D-24    0.270617D-14    0.133382D-20    0.391081D+00
   0    66    0.107209D-24    0.836055D-15    0.243349D-21    0.391081D+00
   0    67    0.207448D-25    0.255372D-15    0.497087D-22    0.391081D+00
   0    68    0.390659D-26    0.771212D-16    0.765981D-23    0.391081D+00
   0    69    0.748770D-27    0.230273D-16    0.198817D-23    0.391081D+00
   0    70    0.141183D-27    0.679817D-17    0.339703D-24    0.391081D+00
   0    71    0.268633D-28    0.198440D-17    0.709109D-25    0.391081D+00
   0    72    0.510881D-29    0.572752D-18    0.142354D-25    0.391081D+00
   0    73    0.980257D-30    0.163463D-18    0.197196D-26    0.391081D+00
   0    74    0.184226D-30    0.461318D-19    0.397866D-27    0.391081D+00
   0    75    0.343680D-31    0.128744D-19    0.717390D-28    0.391081D+00
   0    76    0.647709D-32    0.355316D-20    0.194713D-28    0.391081D+00
   0    77    0.117445D-32    0.969802D-21    0.369629D-29    0.391081D+00
   0    78    0.216248D-33    0.261787D-21    0.462615D-30    0.391081D+00
   0    79    0.399145D-34    0.698925D-22    0.105513D-30    0.391081D+00
   0    80    0.729784D-35    0.184565D-22    0.214353D-31    0.391081D+00
   0    81    0.134265D-35    0.482084D-23    0.324687D-32    0.391081D+00
   0    82    0.244792D-36    0.124559D-23    0.805371D-33    0.391081D+00
   0    83    0.450131D-37    0.318363D-24    0.137679D-33    0.391081D+00
   0    84    0.810854D-38    0.804989D-25    0.238184D-34    0.391081D+00
   0    85    0.144038D-38    0.201371D-25    0.360794D-35    0.391081D+00
   0    86    0.258540D-39    0.498389D-26    0.702125D-36    0.391081D+00
   0    87    0.457364D-40    0.122046D-26    0.119422D-36    0.391081D+00
   0    88    0.808629D-41    0.295725D-27    0.267281D-37    0.391081D+00
   0    89    0.139775D-41    0.709059D-28    0.400341D-38    0.391081D+00
   0    90    0.244159D-42    0.168240D-28    0.672794D-39    0.391081D+00
   0    91    0.416655D-43    0.395054D-29    0.118567D-39    0.391081D+00
   0    92    0.709214D-44    0.918086D-30    0.254167D-40    0.391081D+00
   0    93    0.122598D-44    0.211172D-30    0.319810D-41    0.391081D+00
   0    94    0.207702D-45    0.480770D-31    0.702429D-42    0.391081D+00
   0    95    0.349752D-46    0.108346D-31    0.102808D-42    0.391081D+00
   0    96    0.587645D-47    0.241706D-32    0.155953D-43    0.391081D+00
   0    97    0.992703D-48    0.533806D-33    0.378508D-44    0.391081D+00
   0    98    0.162753D-48    0.116715D-33    0.526972D-45    0.391081D+00
   0    99    0.269683D-49    0.252665D-34    0.879638D-46    0.391081D+00
   0   100    0.440315D-50    0.541576D-35    0.129264D-46    0.391081D+00
   0   101    0.720809D-51    0.114947D-35    0.245789D-47    0.391081D+00
   0   102    0.114898D-51    0.241591D-36    0.365635D-48    0.391081D+00
   0   103    0.181180D-52    0.502848D-37    0.738684D-49    0.391081D+00
   0   104    0.287422D-53    0.103655D-37    0.948257D-50    0.391081D+00
   0   105    0.464963D-54    0.211626D-38    0.156126D-50    0.391081D+00
   0   106    0.721709D-55    0.427952D-39    0.232709D-51    0.391081D+00
   0   107    0.110654D-55    0.857224D-40    0.394259D-52    0.391081D+00
   0   108    0.167835D-56    0.170095D-40    0.735421D-53    0.391081D+00
   0   109    0.258658D-57    0.334358D-41    0.892339D-54    0.391081D+00
   0   110    0.401238D-58    0.651150D-42    0.128006D-54    0.391081D+00
   0   111    0.594376D-59    0.125639D-42    0.233643D-55    0.391081D+00
   0   112    0.889712D-60    0.240195D-43    0.359600D-56    0.391081D+00
   0   113    0.130825D-60    0.455015D-44    0.614677D-57    0.391081D+00
   0   114    0.195204D-61    0.854154D-45    0.685025D-58    0.391081D+00
   0   115    0.276392D-62    0.158898D-45    0.107472D-58    0.391081D+00
   0   116    0.396969D-63    0.292952D-46    0.188525D-59    0.391081D+00
   0   117    0.568646D-64    0.535297D-47    0.246347D-60    0.391081D+00
   0   118    0.805497D-65    0.969477D-48    0.334480D-61    0.391081D+00
   0   119    0.112835D-65    0.174040D-48    0.574162D-62    0.391081D+00
   0   120    0.158681D-66    0.309708D-49    0.650140D-63    0.391081D+00
   0   121    0.219617D-67    0.546351D-50    0.112152D-63    0.391081D+00
   0   122    0.301711D-68    0.955499D-51    0.123657D-64    0.391081D+00
   0   123    0.414009D-69    0.165673D-51    0.182901D-65    0.391081D+00
   0   124    0.558826D-70    0.284812D-52    0.270135D-66    0.391081D+00
   0   125    0.753975D-71    0.485483D-53    0.402651D-67    0.391081D+00
   0   126    0.100016D-71    0.820581D-54    0.542113D-68    0.391081D+00
   0   127    0.130971D-72    0.137538D-54    0.613499D-69    0.391081D+00
   0   128    0.170626D-73    0.228613D-55    0.758143D-70    0.391081D+00
   0   129    0.223293D-74    0.376857D-56    0.996943D-71    0.391081D+00
   0   130    0.286723D-75    0.616132D-57    0.136576D-71    0.391081D+00
   0   131    0.365467D-76    0.999109D-58    0.174095D-72    0.391081D+00
   0   132    0.464312D-77    0.160700D-58    0.230941D-73    0.391081D+00
   0   133    0.582273D-78    0.256392D-59    0.341648D-74    0.391081D+00
   0   134    0.732078D-79    0.405790D-60    0.361064D-75    0.391081D+00
   0   135    0.915408D-80    0.637125D-61    0.452589D-76    0.391081D+00
   0   136    0.112486D-80    0.992422D-62    0.547732D-77    0.391081D+00
   0   137    0.134868D-81    0.153369D-62    0.821463D-78    0.391081D+00
   0   138    0.163226D-82    0.235163D-63    0.934722D-79    0.391081D+00
   0   139    0.194537D-83    0.357775D-64    0.124542D-79    0.391081D+00
   0   140    0.231450D-84    0.540109D-65    0.144542D-80    0.391081D+00
   0   141    0.272887D-85    0.809101D-66    0.172518D-81    0.391081D+00
   0   142    0.328426D-86    0.120280D-66    0.170169D-82    0.391081D+00
   0   143    0.381865D-87    0.177449D-67    0.230709D-83    0.391081D+00
   0   144    0.440625D-88    0.259813D-68    0.273596D-84    0.391081D+00
   0   145    0.502528D-89    0.377552D-69    0.304495D-85    0.391081D+00
   0   146    0.575697D-90    0.544551D-70    0.340007D-86    0.391081D+00
   0   147    0.656260D-91    0.779588D-71    0.364899D-87    0.391081D+00
   0   148    0.730291D-92    0.110784D-71    0.441636D-88    0.391081D+00
   0   149    0.826838D-93    0.156274D-72    0.482504D-89    0.391081D+00
   0   150    0.917791D-94    0.218836D-73    0.615294D-90    0.391081D+00
   0   151    0.100434D-94    0.304221D-74    0.607832D-91    0.391081D+00
   0   152    0.110589D-95    0.419870D-75    0.696450D-92    0.391081D+00
   0   153    0.118335D-96    0.575325D-76    0.736578D-93    0.391081D+00
   0   154    0.125245D-97    0.782713D-77    0.847685D-94    0.391081D+00
   0   155    0.133085D-98    0.105730D-77    0.859875D-95    0.391081D+00
   0   156    0.140735D-99    0.141815D-78    0.964485D-96    0.391081D+00
   0   157    0.149315-100    0.188880D-79    0.963529D-97    0.391081D+00
   0   158    0.155602-101    0.249809D-80    0.107855D-97    0.391081D+00
   0   159    0.162076-102    0.328099D-81    0.124594D-98    0.391081D+00
   0   160    0.169351-103    0.427951D-82    0.117311D-99    0.391081D+00
   0   161    0.170363-104    0.554358D-83    0.137025-100    0.391081D+00
   0   162    0.173534-105    0.713198D-84    0.119300-101    0.391081D+00
   0   163    0.173198-106    0.911317D-85    0.126160-102    0.391081D+00
   0   164    0.175824-107    0.115660D-85    0.127645-103    0.391081D+00
   0   165    0.176212-108    0.145804D-86    0.121990-104    0.391081D+00
   0   166    0.175228-109    0.182574D-87    0.142475-105    0.391081D+00
   0   167    0.172927-110    0.227097D-88    0.128301-106    0.391081D+00
   0   168    0.168035-111    0.280608D-89    0.130560-107    0.391081D+00
   0   169    0.162796-112    0.344445D-90    0.137267-108    0.391081D+00
   0   170    0.155837-113    0.420036D-91    0.127936-109    0.391081D+00
   0   171    0.148695-114    0.508877D-92    0.123954-110    0.391081D+00
   0   172    0.140643-115    0.612511D-93    0.122481-111    0.391081D+00
   0   173    0.132727-116    0.732494D-94    0.108384-112    0.391081D+00
   0   174    0.123691-117    0.870359D-95    0.102352-113    0.391081D+00
   0   175    0.115269-118    0.102757D-95    0.955284-115    0.391081D+00
   0   176    0.106531-119    0.120546D-96    0.960666-116    0.391081D+00
   0   177    0.985075-121    0.140521D-97    0.804478-117    0.391081D+00
   0   178    0.901730-122    0.162775D-98    0.745218-118    0.391081D+00
   0   179    0.832347-123    0.187373D-99    0.703935-119    0.391081D+00
   0   180    0.762421-124    0.214344-100    0.665503-120    0.391081D+00
   0   181    0.695510-125    0.243677-101    0.574880-121    0.391081D+00
   0   182    0.621800-126    0.275314-102    0.523585-122    0.391081D+00
   0   183    0.544801-127    0.309149-103    0.498807-123    0.391081D+00
   0   184    0.479360-128    0.345021-104    0.436769-124    0.391081D+00
   0   185    0.420342-129    0.382713-105    0.357200-125    0.391081D+00
   0   186    0.362212-130    0.421952-106    0.319399-126    0.391081D+00
   0   187    0.317523-131    0.462411-107    0.292536-127    0.391081D+00
   0   188    0.272412-132    0.503710-108    0.243386-128    0.391081D+00
   0   189    0.233684-133    0.545423-109    0.213649-129    0.391081D+00
   0   190    0.199708-134    0.587080-110    0.196733-130    0.391081D+00
   0   191    0.166055-135    0.628181-111    0.152349-131    0.391081D+00
   0   192    0.140968-136    0.668203-112    0.132089-132    0.391081D+00
   0   193    0.117059-137    0.706609-113    0.111062-133    0.391081D+00
   0   194    0.974563-139    0.742863-114    0.986970-135    0.391081D+00
   0   195    0.815533-140    0.776441-115    0.829050-136    0.391081D+00
   0   196    0.681166-141    0.806845-116    0.657839-137    0.391081D+00
   0   197    0.555943-142    0.833614-117    0.579572-138    0.391081D+00
   0   198    0.444984-143    0.856335-118    0.436969-139    0.391081D+00
   0   199    0.359411-144    0.874657-119    0.383584-140    0.391081D+00
   0   200    0.291939-145    0.888297-120    0.293295-141    0.391081D+00
   0   201    0.233644-146    0.897049-121    0.246210-142    0.391081D+00
   0   202    0.186191-147    0.900786-122    0.181203-143    0.391081D+00
   0   203    0.146314-148    0.899467-123    0.158958-144    0.391081D+00
   0   204    0.115291-149    0.893138-124    0.114891-145    0.391081D+00
   0   205    0.899807-151    0.881924-125    0.989471-147    0.391081D+00
   0   206    0.696324-152    0.866032-126    0.756209-148    0.391081D+00
   0   207    0.535995-153    0.845739-127    0.587307-149    0.391081D+00
   0   208    0.413825-154    0.821390-128    0.430367-150    0.391081D+00
   0   209    0.315869-155    0.793384-129    0.357488-151    0.391081D+00
   0   210    0.238245-156    0.762162-130    0.248310-152    0.391081D+00
   0   211    0.182364-157    0.728201-131    0.189159-153    0.391081D+00
   0   212    0.136648-158    0.692000-132    0.154863-154    0.391081D+00
   0   213    0.101646-159    0.654064-133    0.108555-155    0.391081D+00
   0   214    0.758588-161    0.614899-134    0.827914-157    0.391081D+00
   0   215    0.564092-162    0.574999-135    0.638935-158    0.391081D+00
   0   216    0.414706-163    0.534833-136    0.457695-159    0.391081D+00
   0   217    0.304966-164    0.494843-137    0.333837-160    0.391081D+00
   0   218    0.219744-165    0.455432-138    0.258660-161    0.391081D+00
   0   219    0.159572-166    0.416962-139    0.175215-162    0.391081D+00
   0   220    0.112675-167    0.379747-140    0.140423-163    0.391081D+00
   0   221    0.815308-169    0.344054-141    0.974351-165    0.391081D+00
   0   222    0.581223-170    0.310101-142    0.722290-166    0.391081D+00
   0   223    0.411095-171    0.278055-143    0.510267-167    0.391081D+00
   0   224    0.290784-172    0.248040-144    0.356450-168    0.391081D+00
   0   225    0.202943-173    0.220131-145    0.234343-169    0.391081D+00
   0   226    0.140777-174    0.194365-146    0.173430-170    0.391081D+00
   0   227    0.974579-176    0.170744-147    0.119449-171    0.391081D+00
   0   228    0.671110-177    0.149233-148    0.858036-173    0.391081D+00
   0   229    0.459388-178    0.129775-149    0.553985-174    0.391081D+00
   0   230    0.312241-179    0.112287-150    0.385822-175    0.391081D+00
   0   231    0.210305-180    0.966688-152    0.273062-176    0.391081D+00
   0   232    0.142372-181    0.828083-153    0.187730-177    0.391081D+00
   0   233    0.968608-183    0.705827-154    0.123513-178    0.391081D+00
   0   234    0.652073-184    0.598643-155    0.790468-180    0.391081D+00
   0   235    0.441273-185    0.505232-156    0.553020-181    0.391081D+00
   0   236    0.290951-186    0.424302-157    0.376591-182    0.391081D+00
   0   237    0.192205-187    0.354591-158    0.247886-183    0.391081D+00
   0   238    0.127943-188    0.294889-159    0.166717-184    0.391081D+00
   0   239    0.827957-190    0.244047-160    0.114172-185    0.391081D+00
   0   240    0.544664-191    0.200992-161    0.714135-187    0.391081D+00
   0   241    0.354986-192    0.164735-162    0.461326-188    0.391081D+00
   0   242    0.230326-193    0.134370-163    0.312278-189    0.391081D+00
   0   243    0.147390-194    0.109076-164    0.192908-190    0.391081D+00
   0   244    0.935968-196    0.881216-166    0.129859-191    0.391081D+00
   0   245    0.594439-197    0.708539-167    0.825083-193    0.391081D+00
   0   246    0.375715-198    0.567000-168    0.530512-194    0.391081D+00
   0   247    0.238839-199    0.451592-169    0.323491-195    0.391081D+00
   0   248    0.148795-200    0.357982-170    0.207029-196    0.391081D+00
   0   249    0.919069-202    0.282445-171    0.125073-197    0.391081D+00
   0   250    0.573418-203    0.221806-172    0.807821-199    0.391081D+00
   0   251    0.349643-204    0.173375-173    0.499197-200    0.391081D+00
   0   252    0.217337-205    0.134889-174    0.295754-201    0.391081D+00
   0   253    0.132656-206    0.104462-175    0.186648-202    0.391081D+00
   0   254    0.811894-208    0.805247-177    0.118662-203    0.391081D+00
   0   255    0.492848-209    0.617876-178    0.734839-205    0.391081D+00
   0   256    0.292418-210    0.471934-179    0.432585-206    0.391081D+00
   0   257    0.178864-211    0.358819-180    0.247794-207    0.391081D+00
   0   258    0.106951-212    0.271575-181    0.164256-208    0.391081D+00
   0   259    0.632005-214    0.204612-182    0.975704-210    0.391081D+00
   0   260    0.376012-215    0.153464-183    0.578009-211    0.391081D+00
   0   261    0.220744-216    0.114583-184    0.326476-212    0.391081D+00
   0   262    0.129619-217    0.851692-186    0.188836-213    0.391081D+00
   0   263    0.761652-219    0.630227-187    0.115939-214    0.391081D+00
   0   264    0.441431-220    0.464271-188    0.692840-216    0.391081D+00
   0   265    0.254593-221    0.340495-189    0.399810-217    0.391081D+00
   0   266    0.148311-222    0.248612-190    0.233210-218    0.391081D+00
   0   267    0.855813-224    0.180723-191    0.137655-219    0.391081D+00
   0   268    0.488708-225    0.130794-192    0.755182-221    0.391081D+00
   0   269    0.275961-226    0.942433-194    0.421152-222    0.391081D+00
   0   270    0.156643-227    0.676100-195    0.249057-223    0.391081D+00
   0   271    0.889873-229    0.482919-196    0.144212-224    0.391081D+00
   0   272    0.506249-230    0.343436-197    0.812345-226    0.391081D+00
   0   273    0.278339-231    0.243182-198    0.445628-227    0.391081D+00
   0   274    0.153257-232    0.171450-199    0.253694-228    0.391081D+00
   0   275    0.853824-234    0.120357-200    0.137798-229    0.391081D+00
   0   276    0.478220-235    0.841268-202    0.791340-231    0.391081D+00
   0   277    0.262141-236    0.585512-203    0.413836-232    0.391081D+00
   0   278    0.143749-237    0.405771-204    0.237378-233    0.391081D+00
   0   279    0.779501-239    0.280011-205    0.124658-234    0.391081D+00
   0   280    0.424279-240    0.192408-206    0.713438-236    0.391081D+00
   0   281    0.230643-241    0.131654-207    0.398265-237    0.391081D+00
   0   282    0.124565-242    0.897030-209    0.206105-238    0.391081D+00
   0   283    0.668161-244    0.608630-210    0.109865-239    0.391081D+00
   0   284    0.354816-245    0.411222-211    0.629440-241    0.391081D+00
   0   285    0.189005-246    0.276682-212    0.332923-242    0.391081D+00
   0   286    0.100279-247    0.185384-213    0.176786-243    0.391081D+00
   0   287    0.529503-249    0.123697-214    0.887611-245    0.391081D+00
   0   288    0.276873-250    0.821945-216    0.466723-246    0.391081D+00
   0   289    0.144351-251    0.543913-217    0.244566-247    0.391081D+00
   0   290    0.753417-253    0.358448-218    0.136081-248    0.391081D+00
   0   291    0.391492-254    0.235253-219    0.678025-250    0.391081D+00
   0   292    0.202174-255    0.153768-220    0.347724-251    0.391081D+00
   0   293    0.102281-256    0.100096-221    0.188976-252    0.391081D+00
   0   294    0.531165-258    0.648935-223    0.925844-254    0.391081D+00
   0   295    0.270613-259    0.419004-224    0.480161-255    0.391081D+00
   0   296    0.138459-260    0.269448-225    0.251944-256    0.391081D+00
   0   297    0.697328-262    0.172574-226    0.124659-257    0.391081D+00
   0   298    0.348280-263    0.110085-227    0.631819-259    0.391081D+00
   0   299    0.174061-264    0.699409-229    0.311854-260    0.391081D+00
   0   300    0.873110-266    0.442583-230    0.163486-261    0.391081D+00
   0   301    0.436332-267    0.278948-231    0.810034-263    0.391081D+00
   0   302    0.217964-268    0.175114-232    0.395847-264    0.391081D+00
   0   303    0.106793-269    0.109494-233    0.203672-265    0.391081D+00
   0   304    0.523641-271    0.681929-235    0.100345-266    0.391081D+00
   0   305    0.255574-272    0.423030-236    0.498442-268    0.391081D+00
   0   306    0.123600-273    0.261391-237    0.231079-269    0.391081D+00
   0   307    0.600504-275    0.160881-238    0.113736-270    0.391081D+00
   0   308    0.291825-276    0.986310-240    0.539837-272    0.391081D+00
   0   309    0.142127-277    0.602316-241    0.271081-273    0.391081D+00
   0   310    0.686355-279    0.366389-242    0.129847-274    0.391081D+00
   0   311    0.332246-280    0.222009-243    0.625953-276    0.391081D+00
   0   312    0.157974-281    0.134003-244    0.301579-277    0.391081D+00
   0   313    0.746774-283    0.805707-246    0.146552-278    0.391081D+00
   0   314    0.354996-284    0.482575-247    0.699388-280    0.391081D+00
   0   315    0.167816-285    0.287926-248    0.335013-281    0.391081D+00
   0   316    0.791054-287    0.171132-249    0.157824-282    0.391081D+00
   0   317    0.366221-288    0.101325-250    0.718358-284    0.391081D+00
   0   318    0.171205-289    0.597648-252    0.340364-285    0.391081D+00
   0   319    0.790197-291    0.351172-253    0.159728-286    0.391081D+00
   0   320    0.368596-292    0.205563-254    0.741774-288    0.391081D+00
   0   321    0.170837-293    0.119874-255    0.332174-289    0.391081D+00
   0   322    0.779606-295    0.696405-257    0.157543-290    0.391081D+00
   0   323    0.356167-296    0.403054-258    0.720821-292    0.391081D+00
   0   324    0.163413-297    0.232397-259    0.335177-293    0.391081D+00
   0   325    0.743213-299    0.133497-260    0.155813-294    0.391081D+00
   0   326    0.338216-300    0.763985-262    0.675182-296    0.391081D+00
   0   327    0.153124-301    0.435591-263    0.312170-297    0.391081D+00
   0   328    0.679311-303    0.247433-264    0.142812-298    0.391081D+00
   0   329    0.305419-304    0.140030-265    0.617911-300    0.391081D+00
   0   330    0.135165-305    0.789549-267    0.292760-301    0.391081D+00
   0   331    0.597503-307    0.443538-268    0.126245-302    0.391081D+00
   0   332    0.262390-308    0.248246-269    0.575508-304    0.391081D+00
   0   333    0.116754-309    0.138433-270    0.251985-305    0.391081D+00
   0   334    0.506507-311    0.769132-272    0.112207-306    0.391081D+00
   0   335    0.221065-312    0.425770-273    0.489733-308    0.391081D+00
   0   336    0.966426-314    0.234835-274    0.207623-309    0.391081D+00
   0   337    0.420333-315    0.129054-275    0.909625-311    0.391081D+00
   0   338    0.182689-316    0.706646-277    0.404115-312    0.391081D+00
   0   339    0.792274-318    0.385530-278    0.171386-313    0.391081D+00
   0   340    0.345599-319    0.209578-279    0.697127-315    0.391081D+00
   0   341    0.000000D+00    0.113519-280    0.676870-316    0.391081D+00
   0   342    0.000000D+00    0.612669-282    0.000000D+00    0.391081D+00
   0   343    0.000000D+00    0.329478-283    0.000000D+00    0.391081D+00
   0   344    0.000000D+00    0.176552-284    0.000000D+00    0.391081D+00
   0   345    0.000000D+00    0.942684-286    0.000000D+00    0.391081D+00
   0   346    0.000000D+00    0.501548-287    0.000000D+00    0.391081D+00
   0   347    0.000000D+00    0.265898-288    0.000000D+00    0.391081D+00
   0   348    0.000000D+00    0.140468-289    0.000000D+00    0.391081D+00
   0   349    0.000000D+00    0.739440-291    0.000000D+00    0.391081D+00
   0   350    0.000000D+00    0.387877-292    0.000000D+00    0.391081D+00
   0   351    0.000000D+00    0.202748-293    0.000000D+00    0.391081D+00
   0   352    0.000000D+00    0.105607-294    0.000000D+00    0.391081D+00
   0   353    0.000000D+00    0.548157-296    0.000000D+00    0.391081D+00
   0   354    0.000000D+00    0.283530-297    0.000000D+00    0.391081D+00
   0   355    0.000000D+00    0.146142-298    0.000000D+00    0.391081D+00
   0   356    0.000000D+00    0.750656-300    0.000000D+00    0.391081D+00
   0   357    0.000000D+00    0.384235-301    0.000000D+00    0.391081D+00
   0   358    0.000000D+00    0.195996-302    0.000000D+00    0.391081D+00
   0   359    0.000000D+00    0.996310-304    0.000000D+00    0.391081D+00
   0   360    0.000000D+00    0.504711-305    0.000000D+00    0.391081D+00
   0   361    0.000000D+00    0.254798-306    0.000000D+00    0.391081D+00
   0   362    0.000000D+00    0.128191-307    0.000000D+00    0.391081D+00
   0   363    0.000000D+00    0.642728-309    0.000000D+00    0.391081D+00
   0   364    0.000000D+00    0.321153-310    0.000000D+00    0.391081D+00
   0   365    0.000000D+00    0.159924-311    0.000000D+00    0.391081D+00
   0   366    0.000000D+00    0.793666-313    0.000000D+00    0.391081D+00
   0   367    0.000000D+00    0.392540-314    0.000000D+00    0.391081D+00
   0   368    0.000000D+00    0.193490-315    0.000000D+00    0.391081D+00
   0   369    0.000000D+00    0.950519-317    0.000000D+00    0.391081D+00
   0   370    0.000000D+00    0.465360-318    0.000000D+00    0.391081D+00
   0   371    0.000000D+00    0.227023-319    0.000000D+00    0.391081D+00
   0   372    0.000000D+00    0.109683-320    0.000000D+00    0.391081D+00
   0   373    0.000000D+00    0.444659-322    0.000000D+00    0.391081D+00
   0   374    0.000000D+00    0.000000D+00    0.000000D+00    0.391081D+00
   0   375    0.000000D+00    0.000000D+00    0.000000D+00    0.391081D+00
   0   376    0.000000D+00    0.000000D+00    0.000000D+00    0.391081D+00
   0   377    0.000000D+00    0.000000D+00    0.000000D+00    0.391081D+00
   0   378    0.000000D+00    0.000000D+00    0.000000D+00    0.391081D+00
   0   379    0.000000D+00    0.000000D+00    0.000000D+00    0.391081D+00
   0   380    0.000000D+00    0.000000D+00    0.000000D+00    0.391081D+00
   0   381    0.000000D+00    0.000000D+00    0.000000D+00    0.391081D+00
   0   382    0.000000D+00    0.000000D+00    0.000000D+00    0.391081D+00
   0   383    0.000000D+00    0.000000D+00    0.000000D+00    0.391081D+00
   0   384    0.000000D+00    0.000000D+00    0.000000D+00    0.391081D+00
   0   385    0.000000D+00    0.000000D+00    0.000000D+00    0.391081D+00
   0   386    0.000000D+00    0.000000D+00    0.000000D+00    0.391081D+00
   0   387    0.000000D+00    0.000000D+00    0.000000D+00    0.391081D+00
   0   388    0.000000D+00    0.000000D+00    0.000000D+00    0.391081D+00
   0   389    0.000000D+00    0.000000D+00    0.000000D+00    0.391081D+00
   0   390    0.000000D+00    0.000000D+00    0.000000D+00    0.391081D+00
   0   391    0.000000D+00    0.000000D+00    0.000000D+00    0.391081D+00
   0   392    0.000000D+00    0.000000D+00    0.000000D+00    0.391081D+00
   0   393    0.000000D+00    0.000000D+00    0.000000D+00    0.391081D+00
   0   394    0.000000D+00    0.000000D+00    0.000000D+00    0.391081D+00
   0   395    0.000000D+00    0.000000D+00    0.000000D+00    0.391081D+00
   0   396    0.000000D+00    0.000000D+00    0.000000D+00    0.391081D+00
   0   397    0.000000D+00    0.000000D+00    0.000000D+00    0.391081D+00