variables =  "IG"  "JG"  "PHI"  "Temp."  "Latent_heat"  "mm"
ZONE  I=  401  J=  101
   0     0    0.100000D+01    0.100953D+01    0.000000D+00    0.174674D+00
   0     1    0.100000D+01    0.100953D+01    0.000000D+00    0.174674D+00
   0     2    0.100000D+01    0.100978D+01    0.000000D+00    0.174266D+00
   0     3    0.100000D+01    0.101027D+01    0.000000D+00    0.173448D+00
   0     4    0.100000D+01    0.101101D+01    0.000000D+00    0.172218D+00
   0     5    0.100000D+01    0.101198D+01    0.000000D+00    0.170575D+00
   0     6    0.100000D+01    0.101320D+01    0.000000D+00    0.168516D+00
   0     7    0.100000D+01    0.101464D+01    0.000000D+00    0.166037D+00
   0     8    0.100000D+01    0.101630D+01    0.000000D+00    0.163133D+00
   0     9    0.100000D+01    0.101818D+01    0.000000D+00    0.159803D+00
   0    10    0.100000D+01    0.102026D+01    0.000000D+00    0.156041D+00
   0    11    0.100000D+01    0.102253D+01    0.000000D+00    0.151846D+00
   0    12    0.100000D+01    0.102499D+01    0.000000D+00    0.147217D+00
   0    13    0.100000D+01    0.102762D+01    0.000000D+00    0.142152D+00
   0    14    0.100000D+01    0.103040D+01    0.000000D+00    0.136656D+00
   0    15    0.100000D+01    0.103333D+01    0.000000D+00    0.130732D+00
   0    16    0.100000D+01    0.103638D+01    0.000000D+00    0.124391D+00
   0    17    0.100000D+01    0.103955D+01    0.000000D+00    0.117645D+00
   0    18    0.100000D+01    0.104282D+01    0.000000D+00    0.110511D+00
   0    19    0.100000D+01    0.104618D+01    0.000000D+00    0.103014D+00
   0    20    0.100000D+01    0.104960D+01    0.000000D+00    0.951809D-01
   0    21    0.100000D+01    0.105307D+01    0.000000D+00    0.870480D-01
   0    22    0.100000D+01    0.105658D+01    0.583411D-10    0.786561D-01
   0    23    0.100000D+01    0.106010D+01    0.150228D-08    0.700521D-01
   0    24    0.100000D+01    0.106363D+01    0.949502D-08    0.612884D-01
   0    25    0.100000D+01    0.106715D+01    0.141492D-06    0.524218D-01
   0    26    0.100000D+01    0.107063D+01   -0.104922D-05    0.435130D-01
   0    27    0.100000D+01    0.107407D+01   -0.316113D-05    0.346242D-01
   0    28    0.100000D+01    0.107744D+01    0.528027D-04    0.258179D-01
   0    29    0.999999D+00    0.108074D+01   -0.430397D-03    0.171544D-01
   0    30    0.999993D+00    0.108395D+01    0.337590D-02    0.869142D-02
   0    31    0.999946D+00    0.108705D+01   -0.154744D-01    0.487382D-03
   0    32    0.999579D+00    0.109002D+01   -0.538175D-01   -0.736552D-02
   0    33    0.996734D+00    0.109278D+01   -0.597478D+00   -0.146858D-01
   0    34    0.975204D+00    0.109470D+01    0.756712D+01   -0.198314D-01
   0    35    0.823820D+00    0.109587D+01   -0.253797D+02   -0.237171D-01
   0    36    0.159262D+00    0.109853D+01   -0.200716D+02   -0.315757D-01
   0    37    0.220709D-01    0.110127D+01    0.111495D+01   -0.368934D-01
   0    38    0.311236D-02    0.110312D+01   -0.125597D+01   -0.417162D-01
   0    39    0.491889D-03    0.110413D+01    0.337536D-01   -0.442618D-01
   0    40    0.123353D-03    0.110474D+01   -0.430437D-01   -0.458236D-01
   0    41    0.672484D-04    0.110503D+01   -0.206509D-01   -0.465712D-01
   0    42    0.590818D-04    0.110507D+01   -0.235596D-01   -0.466626D-01
   0    43    0.569131D-04    0.110482D+01    0.282303D-01   -0.460347D-01
   0    44    0.587311D-04    0.110429D+01    0.245891D-01   -0.446571D-01
   0    45    0.593930D-04    0.110341D+01   -0.175441D-01   -0.423966D-01
   0    46    0.623531D-04    0.110219D+01   -0.128476D-01   -0.392472D-01
   0    47    0.650836D-04    0.110060D+01   -0.154015D-01   -0.351346D-01
   0    48    0.707200D-04    0.109863D+01   -0.461113D-01   -0.300020D-01
   0    49    0.802273D-04    0.109632D+01   -0.272618D-01   -0.239486D-01
   0    50    0.100852D-03    0.109378D+01   -0.207761D-01   -0.172842D-01
   0    51    0.150018D-03    0.109119D+01    0.136602D-01   -0.104396D-01
   0    52    0.251624D-03    0.108881D+01   -0.147441D+00   -0.415863D-02
   0    53    0.424066D-03    0.108711D+01    0.146435D+00    0.279571D-03
   0    54    0.523487D-03    0.108611D+01    0.664544D-01    0.300496D-02
   0    55    0.494508D-03    0.108582D+01   -0.246628D-01    0.373784D-02
   0    56    0.342730D-03    0.108601D+01   -0.129975D+00    0.322507D-02
   0    57    0.206566D-03    0.108669D+01    0.238054D-01    0.143774D-02
   0    58    0.134429D-03    0.108742D+01   -0.334864D-01   -0.496836D-03
   0    59    0.107154D-03    0.108797D+01   -0.306937D-01   -0.194264D-02
   0    60    0.975973D-04    0.108822D+01    0.331121D-01   -0.259785D-02
   0    61    0.947662D-04    0.108815D+01   -0.299320D-01   -0.240441D-02
   0    62    0.951333D-04    0.108777D+01    0.175477D-01   -0.139633D-02
   0    63    0.961693D-04    0.108715D+01   -0.126864D-01    0.243635D-03
   0    64    0.100308D-03    0.108635D+01    0.968763D-02    0.234956D-02
   0    65    0.103066D-03    0.108546D+01    0.442114D-01    0.471857D-02
   0    66    0.106566D-03    0.108451D+01    0.567909D-01    0.722723D-02
   0    67    0.108525D-03    0.108355D+01    0.222670D-01    0.975830D-02
   0    68    0.111442D-03    0.108261D+01    0.381225D-01    0.122404D-01
   0    69    0.115038D-03    0.108176D+01    0.239721D-01    0.144871D-01
   0    70    0.117687D-03    0.108097D+01    0.428472D-01    0.165704D-01
   0    71    0.120544D-03    0.108019D+01    0.379416D-01    0.186094D-01
   0    72    0.120671D-03    0.107946D+01   -0.408922D-01    0.205490D-01
   0    73    0.126670D-03    0.107877D+01    0.477914D-01    0.223329D-01
   0    74    0.131053D-03    0.107808D+01   -0.133430D-01    0.241605D-01
   0    75    0.132358D-03    0.107740D+01   -0.868732D-01    0.259357D-01
   0    76    0.135936D-03    0.107672D+01    0.142275D-01    0.277239D-01
   0    77    0.139741D-03    0.107606D+01   -0.828209D-01    0.294487D-01
   0    78    0.142788D-03    0.107541D+01   -0.376022D-01    0.311279D-01
   0    79    0.147551D-03    0.107476D+01   -0.539468D-01    0.328458D-01
   0    80    0.148366D-03    0.107406D+01   -0.127081D-01    0.346379D-01
   0    81    0.151700D-03    0.107335D+01   -0.101752D+00    0.365087D-01
   0    82    0.154731D-03    0.107266D+01    0.886421D-01    0.382824D-01
   0    83    0.157102D-03    0.107205D+01   -0.263999D-02    0.398642D-01
   0    84    0.162061D-03    0.107149D+01   -0.724041D-02    0.413163D-01
   0    85    0.167142D-03    0.107093D+01    0.420203D-01    0.427377D-01
   0    86    0.169414D-03    0.107041D+01    0.379816D-01    0.440879D-01
   0    87    0.176509D-03    0.106994D+01   -0.119829D+00    0.452988D-01
   0    88    0.173880D-03    0.106950D+01    0.516325D-01    0.464394D-01
   0    89    0.178379D-03    0.106905D+01   -0.171646D-01    0.475700D-01
   0    90    0.179215D-03    0.106864D+01    0.704957D-01    0.486320D-01
   0    91    0.181831D-03    0.106826D+01   -0.134993D-01    0.496068D-01
   0    92    0.189224D-03    0.106784D+01   -0.727027D-01    0.506665D-01
   0    93    0.191947D-03    0.106736D+01   -0.801936D-01    0.518775D-01
   0    94    0.199935D-03    0.106679D+01    0.104440D+00    0.533209D-01
   0    95    0.207864D-03    0.106617D+01   -0.134201D+00    0.549140D-01
   0    96    0.216417D-03    0.106553D+01   -0.135300D+00    0.565263D-01
   0    97    0.227307D-03    0.106499D+01   -0.155508D+00    0.578749D-01
   0    98    0.237424D-03    0.106465D+01   -0.138717D+00    0.587423D-01
   0    99    0.247762D-03    0.106449D+01   -0.140898D+00    0.591378D-01
   0   100    0.246339D-03    0.106458D+01    0.219388D-01    0.589015D-01
   0   101    0.245502D-03    0.106488D+01   -0.729473D-01    0.581635D-01
   0   102    0.246174D-03    0.106529D+01    0.843112D-01    0.570895D-01
   0   103    0.245407D-03    0.106572D+01    0.443416D-02    0.560408D-01
   0   104    0.245732D-03    0.106607D+01   -0.166810D+00    0.551452D-01
   0   105    0.252151D-03    0.106647D+01    0.795184D-01    0.541246D-01
   0   106    0.264127D-03    0.106699D+01   -0.146088D+00    0.527901D-01
   0   107    0.283190D-03    0.106770D+01   -0.128727D+00    0.510194D-01
   0   108    0.297522D-03    0.106862D+01   -0.377006D-01    0.486553D-01
   0   109    0.306405D-03    0.106974D+01   -0.915842D-01    0.457707D-01
   0   110    0.304540D-03    0.107088D+01   -0.697587D-01    0.428200D-01
   0   111    0.301448D-03    0.107209D+01    0.114657D+00    0.396997D-01
   0   112    0.306596D-03    0.107337D+01    0.596013D-01    0.364001D-01
   0   113    0.307848D-03    0.107475D+01    0.945523D-01    0.328056D-01
   0   114    0.313315D-03    0.107619D+01    0.222393D+00    0.290719D-01
   0   115    0.318506D-03    0.107772D+01   -0.109768D+00    0.250687D-01
   0   116    0.326492D-03    0.107930D+01    0.197938D+00    0.208900D-01
   0   117    0.327979D-03    0.108093D+01   -0.170972D-01    0.166184D-01
   0   118    0.322189D-03    0.108266D+01    0.187652D+00    0.120596D-01
   0   119    0.328930D-03    0.108443D+01    0.113858D+00    0.737187D-02
   0   120    0.331843D-03    0.108622D+01    0.130152D+00    0.264580D-02
   0   121    0.333272D-03    0.108791D+01    0.214345D+00   -0.183624D-02
   0   122    0.341463D-03    0.108943D+01   -0.428702D-01   -0.585836D-02
   0   123    0.343156D-03    0.109091D+01   -0.111835D+00   -0.973305D-02
   0   124    0.343496D-03    0.109234D+01    0.177921D+00   -0.135093D-01
   0   125    0.336155D-03    0.109361D+01    0.598378D-01   -0.168926D-01
   0   126    0.336843D-03    0.109492D+01    0.210657D+00   -0.203332D-01
   0   127    0.345307D-03    0.109616D+01   -0.119996D+00   -0.235891D-01
   0   128    0.340701D-03    0.109745D+01   -0.140842D+00   -0.269495D-01
   0   129    0.345293D-03    0.109865D+01    0.140733D+00   -0.300787D-01
   0   130    0.348775D-03    0.109986D+01    0.200840D+00   -0.332290D-01
   0   131    0.354250D-03    0.110102D+01    0.713626D-01   -0.362362D-01
   0   132    0.350358D-03    0.110204D+01   -0.184492D+00   -0.388492D-01
   0   133    0.345547D-03    0.110293D+01    0.136863D+00   -0.412074D-01
   0   134    0.352747D-03    0.110367D+01    0.109569D+00   -0.431027D-01
   0   135    0.352612D-03    0.110429D+01   -0.159029D-01   -0.446754D-01
   0   136    0.355754D-03    0.110490D+01   -0.201456D-01   -0.462323D-01
   0   137    0.351538D-03    0.110536D+01   -0.189264D+00   -0.474469D-01
   0   138    0.350135D-03    0.110585D+01    0.222695D+00   -0.486761D-01
   0   139    0.357400D-03    0.110639D+01   -0.136669D-01   -0.500409D-01
   0   140    0.359304D-03    0.110684D+01   -0.243979D-01   -0.511914D-01
   0   141    0.366635D-03    0.110724D+01   -0.530726D-01   -0.522127D-01
   0   142    0.367397D-03    0.110736D+01   -0.989141D-01   -0.525282D-01
   0   143    0.368424D-03    0.110752D+01   -0.106337D+00   -0.529491D-01
   0   144    0.364389D-03    0.110779D+01    0.949667D-01   -0.535807D-01
   0   145    0.374474D-03    0.110805D+01   -0.594546D-01   -0.543058D-01
   0   146    0.371818D-03    0.110814D+01   -0.990489D-01   -0.544947D-01
   0   147    0.374966D-03    0.110826D+01   -0.154830D-01   -0.548186D-01
   0   148    0.373325D-03    0.110844D+01   -0.113233D+00   -0.552608D-01
   0   149    0.376280D-03    0.110855D+01   -0.109184D+00   -0.555100D-01
   0   150    0.387629D-03    0.110871D+01   -0.233825D+00   -0.559194D-01
   0   151    0.378789D-03    0.110881D+01    0.164884D+00   -0.562038D-01
   0   152    0.388097D-03    0.110877D+01   -0.629514D-01   -0.561117D-01
   0   153    0.394148D-03    0.110871D+01   -0.181378D+00   -0.559638D-01
   0   154    0.390569D-03    0.110862D+01    0.350510D-01   -0.557131D-01
   0   155    0.390963D-03    0.110858D+01   -0.197749D+00   -0.555936D-01
   0   156    0.393939D-03    0.110861D+01   -0.140202D+00   -0.556696D-01
   0   157    0.395715D-03    0.110862D+01    0.583057D-01   -0.556866D-01
   0   158    0.403597D-03    0.110860D+01    0.946798D-02   -0.556772D-01
   0   159    0.409805D-03    0.110853D+01    0.352765D-01   -0.554992D-01
   0   160    0.410496D-03    0.110833D+01    0.122614D+00   -0.549787D-01
   0   161    0.406011D-03    0.110802D+01    0.745661D-01   -0.542002D-01
   0   162    0.415057D-03    0.110779D+01   -0.261199D+00   -0.536072D-01
   0   163    0.421878D-03    0.110761D+01   -0.244232D+00   -0.531459D-01
   0   164    0.428117D-03    0.110747D+01    0.199462D+00   -0.528098D-01
   0   165    0.429808D-03    0.110718D+01    0.158891D+00   -0.520554D-01
   0   166    0.443565D-03    0.110697D+01    0.610804D-01   -0.515293D-01
   0   167    0.449206D-03    0.110673D+01   -0.238082D+00   -0.508864D-01
   0   168    0.443476D-03    0.110647D+01   -0.214242D+00   -0.502513D-01
   0   169    0.455275D-03    0.110621D+01    0.484302D-01   -0.495591D-01
   0   170    0.456429D-03    0.110582D+01    0.138274D+00   -0.485345D-01
   0   171    0.454400D-03    0.110546D+01   -0.949233D-01   -0.476581D-01
   0   172    0.471517D-03    0.110514D+01    0.156854D+00   -0.468507D-01
   0   173    0.474682D-03    0.110472D+01   -0.205811D+00   -0.457697D-01
   0   174    0.474134D-03    0.110443D+01   -0.195938D+00   -0.450225D-01
   0   175    0.487445D-03    0.110413D+01    0.187714D+00   -0.442405D-01
   0   176    0.490982D-03    0.110375D+01   -0.771910D-01   -0.432601D-01
   0   177    0.492288D-03    0.110331D+01   -0.801333D-01   -0.421105D-01
   0   178    0.495208D-03    0.110282D+01    0.309058D+00   -0.408704D-01
   0   179    0.504442D-03    0.110244D+01   -0.131795D+00   -0.399062D-01
   0   180    0.514344D-03    0.110200D+01   -0.128111D+00   -0.387799D-01
   0   181    0.521034D-03    0.110156D+01    0.184935D+00   -0.376214D-01
   0   182    0.536120D-03    0.110105D+01   -0.346870D+00   -0.362769D-01
   0   183    0.535515D-03    0.110042D+01   -0.236057D+00   -0.346413D-01
   0   184    0.549915D-03    0.109986D+01    0.190758D+00   -0.331665D-01
   0   185    0.544924D-03    0.109925D+01    0.206130D-01   -0.316022D-01
   0   186    0.552394D-03    0.109870D+01    0.190496D+00   -0.301429D-01
   0   187    0.568092D-03    0.109816D+01   -0.344395D+00   -0.287664D-01
   0   188    0.575043D-03    0.109761D+01   -0.733340D-01   -0.272796D-01
   0   189    0.573813D-03    0.109702D+01    0.265172D+00   -0.257258D-01
   0   190    0.587182D-03    0.109645D+01   -0.327050D+00   -0.242649D-01
   0   191    0.604752D-03    0.109591D+01    0.178543D+00   -0.228118D-01
   0   192    0.618450D-03    0.109518D+01    0.137086D+00   -0.209377D-01
   0   193    0.618279D-03    0.109446D+01   -0.362948D+00   -0.190795D-01
   0   194    0.630615D-03    0.109377D+01    0.368177D+00   -0.172466D-01
   0   195    0.647931D-03    0.109307D+01    0.184759D+00   -0.153889D-01
   0   196    0.641073D-03    0.109242D+01   -0.207309D+00   -0.136620D-01
   0   197    0.666377D-03    0.109175D+01    0.342013D+00   -0.119413D-01
   0   198    0.672819D-03    0.109109D+01   -0.349781D+00   -0.101712D-01
   0   199    0.685221D-03    0.109033D+01   -0.229946D+00   -0.816626D-02
   0   200    0.707890D-03    0.108949D+01    0.127649D-02   -0.595965D-02
   0   201    0.715394D-03    0.108874D+01   -0.248956D+00   -0.396255D-02
   0   202    0.723643D-03    0.108808D+01    0.103358D+00   -0.215784D-02
   0   203    0.743373D-03    0.108738D+01   -0.423784D+00   -0.319942D-03
   0   204    0.757176D-03    0.108677D+01    0.521742D+00    0.121378D-02
   0   205    0.771805D-03    0.108620D+01    0.159147D+00    0.278086D-02
   0   206    0.803405D-03    0.108556D+01   -0.196374D+00    0.447232D-02
   0   207    0.800532D-03    0.108472D+01   -0.419857D+00    0.673833D-02
   0   208    0.815927D-03    0.108383D+01   -0.193788D+00    0.901030D-02
   0   209    0.843911D-03    0.108271D+01    0.224379D+00    0.120150D-01
   0   210    0.867392D-03    0.108161D+01   -0.516137D+00    0.148918D-01
   0   211    0.896448D-03    0.108055D+01    0.432636D+00    0.176699D-01
   0   212    0.921367D-03    0.107928D+01    0.248295D+00    0.209831D-01
   0   213    0.957389D-03    0.107807D+01    0.765662D-01    0.241531D-01
   0   214    0.992673D-03    0.107689D+01    0.544686D+00    0.272912D-01
   0   215    0.102876D-02    0.107566D+01    0.232793D+00    0.304567D-01
   0   216    0.106647D-02    0.107451D+01   -0.467510D+00    0.335472D-01
   0   217    0.110029D-02    0.107350D+01   -0.681115D+00    0.361027D-01
   0   218    0.111189D-02    0.107292D+01    0.303802D+00    0.376151D-01
   0   219    0.115214D-02    0.107239D+01   -0.315224D+00    0.389035D-01
   0   220    0.118277D-02    0.107190D+01    0.192721D+00    0.402312D-01
   0   221    0.118917D-02    0.107125D+01    0.461288D-01    0.418786D-01
   0   222    0.120479D-02    0.107056D+01   -0.301568D+00    0.437226D-01
   0   223    0.123850D-02    0.107008D+01   -0.392437D+00    0.449604D-01
   0   224    0.129915D-02    0.106939D+01   -0.648671D+00    0.467677D-01
   0   225    0.133136D-02    0.106850D+01    0.238540D+00    0.490372D-01
   0   226    0.137303D-02    0.106745D+01   -0.379333D+00    0.516583D-01
   0   227    0.143497D-02    0.106666D+01    0.430676D+00    0.535711D-01
   0   228    0.148579D-02    0.106610D+01   -0.667327D-01    0.551417D-01
   0   229    0.155096D-02    0.106532D+01   -0.880564D+00    0.571066D-01
   0   230    0.162885D-02    0.106460D+01    0.537232D+00    0.587751D-01
   0   231    0.173793D-02    0.106385D+01   -0.206122D-01    0.606825D-01
   0   232    0.182397D-02    0.106369D+01    0.103948D+01    0.612202D-01
   0   233    0.193601D-02    0.106395D+01   -0.172521D+00    0.604454D-01
   0   234    0.207327D-02    0.106420D+01    0.191515D+00    0.598404D-01
   0   235    0.210007D-02    0.106468D+01    0.390924D+00    0.587127D-01
   0   236    0.219688D-02    0.106512D+01   -0.849341D+00    0.574514D-01
   0   237    0.223401D-02    0.106563D+01   -0.121513D+01    0.562356D-01
   0   238    0.226054D-02    0.106658D+01   -0.143821D+01    0.537365D-01
   0   239    0.226804D-02    0.106776D+01    0.804113D+00    0.507904D-01
   0   240    0.229026D-02    0.106926D+01    0.442082D-01    0.470120D-01
   0   241    0.236885D-02    0.107062D+01    0.414522D+00    0.435997D-01
   0   242    0.237807D-02    0.107225D+01    0.132176D+00    0.392760D-01
   0   243    0.249438D-02    0.107361D+01   -0.114380D+01    0.356347D-01
   0   244    0.251222D-02    0.107537D+01   -0.127856D+01    0.310842D-01
   0   245    0.256728D-02    0.107734D+01   -0.124574D+01    0.259849D-01
   0   246    0.258646D-02    0.107944D+01   -0.524260D+00    0.203355D-01
   0   247    0.261469D-02    0.108115D+01    0.492992D+00    0.160803D-01
   0   248    0.258036D-02    0.108317D+01   -0.121867D+01    0.108060D-01
   0   249    0.256570D-02    0.108471D+01    0.778273D+00    0.677625D-02
   0   250    0.258743D-02    0.108674D+01    0.173427D+01    0.121080D-02
   0   251    0.267911D-02    0.108907D+01   -0.760035D+00   -0.497453D-02
   0   252    0.272310D-02    0.109095D+01    0.183323D+01   -0.972147D-02
   0   253    0.281120D-02    0.109309D+01   -0.418610D-02   -0.153179D-01
   0   254    0.282790D-02    0.109517D+01    0.510701D+00   -0.208960D-01
   0   255    0.285080D-02    0.109683D+01   -0.107534D+01   -0.254705D-01
   0   256    0.284600D-02    0.109833D+01    0.113058D+01   -0.293034D-01
   0   257    0.283863D-02    0.109947D+01    0.394407D+00   -0.323611D-01
   0   258    0.286699D-02    0.110071D+01   -0.105247D+01   -0.355137D-01
   0   259    0.286925D-02    0.110160D+01    0.378963D+00   -0.378220D-01
   0   260    0.286419D-02    0.110241D+01    0.123442D+00   -0.399898D-01
   0   261    0.291064D-02    0.110347D+01   -0.155360D+01   -0.426467D-01
   0   262    0.294715D-02    0.110405D+01    0.584696D+00   -0.438769D-01
   0   263    0.295935D-02    0.110452D+01    0.172764D+01   -0.453126D-01
   0   264    0.299010D-02    0.110543D+01   -0.197130D+00   -0.475941D-01
   0   265    0.297853D-02    0.110610D+01    0.930478D+00   -0.492263D-01
   0   266    0.306867D-02    0.110660D+01    0.139693D+01   -0.506864D-01
   0   267    0.304910D-02    0.110692D+01   -0.547252D+00   -0.511835D-01
   0   268    0.303243D-02    0.110744D+01    0.226201D+01   -0.527548D-01
   0   269    0.311024D-02    0.110781D+01   -0.150761D+01   -0.536082D-01
   0   270    0.316941D-02    0.110816D+01   -0.357064D+00   -0.545874D-01
   0   271    0.314895D-02    0.110814D+01    0.153044D+01   -0.543817D-01
   0   272    0.317023D-02    0.110822D+01    0.207063D+01   -0.547004D-01
   0   273    0.322819D-02    0.110827D+01   -0.330815D+00   -0.546412D-01
   0   274    0.326425D-02    0.110862D+01   -0.130796D+01   -0.557540D-01
   0   275    0.328171D-02    0.110834D+01    0.486562D+00   -0.548697D-01
   0   276    0.333056D-02    0.110855D+01   -0.149945D+00   -0.552151D-01
   0   277    0.338455D-02    0.110817D+01   -0.137411D+01   -0.544892D-01
   0   278    0.334543D-02    0.110769D+01   -0.100649D+00   -0.532111D-01
   0   279    0.343652D-02    0.110745D+01   -0.146838D+01   -0.528319D-01
   0   280    0.351381D-02    0.110777D+01    0.186977D+01   -0.534150D-01
   0   281    0.348024D-02    0.110744D+01   -0.549325D+00   -0.527954D-01
   0   282    0.355950D-02    0.110744D+01   -0.170197D+01   -0.524124D-01
   0   283    0.363796D-02    0.110713D+01   -0.188187D+01   -0.519843D-01
   0   284    0.367651D-02    0.110671D+01   -0.163266D+01   -0.510325D-01
   0   285    0.373806D-02    0.110630D+01   -0.223954D+01   -0.496803D-01
   0   286    0.382197D-02    0.110539D+01    0.133776D+01   -0.472251D-01
   0   287    0.383043D-02    0.110467D+01    0.864666D+00   -0.457021D-01
   0   288    0.395795D-02    0.110425D+01   -0.154689D-01   -0.448768D-01
   0   289    0.397909D-02    0.110384D+01    0.225723D+01   -0.434164D-01
   0   290    0.407684D-02    0.110327D+01    0.249201D+01   -0.418717D-01
   0   291    0.421125D-02    0.110234D+01   -0.136761D+00   -0.394550D-01
   0   292    0.425108D-02    0.110133D+01   -0.263103D+01   -0.367202D-01
   0   293    0.434541D-02    0.110023D+01   -0.221841D+01   -0.344205D-01
   0   294    0.446009D-02    0.109963D+01    0.118597D+01   -0.326418D-01
   0   295    0.449691D-02    0.109831D+01    0.130276D+01   -0.294223D-01
   0   296    0.464226D-02    0.109702D+01   -0.132638D+01   -0.257549D-01
   0   297    0.471253D-02    0.109610D+01   -0.769432D+00   -0.233801D-01
   0   298    0.478825D-02    0.109559D+01    0.106300D+01   -0.218136D-01
   0   299    0.489466D-02    0.109472D+01   -0.268486D+01   -0.199819D-01
   0   300    0.496725D-02    0.109390D+01    0.158318D+00   -0.174811D-01
   0   301    0.514390D-02    0.109262D+01   -0.948129D+00   -0.142432D-01
   0   302    0.531088D-02    0.109197D+01   -0.274543D+01   -0.122479D-01
   0   303    0.535334D-02    0.109049D+01    0.366282D+00   -0.848111D-02
   0   304    0.552750D-02    0.108935D+01    0.179931D+00   -0.559530D-02
   0   305    0.572228D-02    0.108757D+01    0.219383D+01   -0.709470D-03
   0   306    0.589515D-02    0.108639D+01    0.313519D+01    0.217661D-02
   0   307    0.613918D-02    0.108531D+01    0.251493D+01    0.550895D-02
   0   308    0.620623D-02    0.108399D+01    0.259711D+01    0.892555D-02
   0   309    0.646138D-02    0.108295D+01   -0.411014D+01    0.111056D-01
   0   310    0.671804D-02    0.108173D+01   -0.144929D+01    0.142131D-01
   0   311    0.698176D-02    0.108010D+01   -0.133853D+01    0.186799D-01
   0   312    0.711582D-02    0.107901D+01   -0.325301D+01    0.219608D-01
   0   313    0.725925D-02    0.107777D+01    0.307028D+01    0.252130D-01
   0   314    0.745715D-02    0.107656D+01    0.337764D+01    0.286345D-01
   0   315    0.790493D-02    0.107544D+01    0.422301D+01    0.307197D-01
   0   316    0.812588D-02    0.107357D+01   -0.242964D+01    0.361672D-01
   0   317    0.839441D-02    0.107312D+01    0.448030D+01    0.374129D-01
   0   318    0.886799D-02    0.107179D+01   -0.548906D+01    0.406473D-01
   0   319    0.929547D-02    0.107084D+01    0.169333D+01    0.424799D-01
   0   320    0.975679D-02    0.106858D+01    0.472242D+01    0.486419D-01
   0   321    0.103634D-01    0.106709D+01   -0.369070D+00    0.528827D-01
   0   322    0.109616D-01    0.106575D+01   -0.904384D+00    0.561218D-01
   0   323    0.117012D-01    0.106454D+01    0.247153D+01    0.589395D-01
   0   324    0.122959D-01    0.106406D+01   -0.116956D+01    0.606693D-01
   0   325    0.130133D-01    0.106230D+01   -0.287936D+01    0.651006D-01
   0   326    0.135030D-01    0.106199D+01   -0.707717D+00    0.662273D-01
   0   327    0.145239D-01    0.106340D+01   -0.858727D+01    0.611451D-01
   0   328    0.154260D-01    0.106371D+01    0.704231D+01    0.606456D-01
   0   329    0.161743D-01    0.106389D+01   -0.671779D+01    0.606980D-01
   0   330    0.167961D-01    0.106615D+01   -0.286569D+00    0.543500D-01
   0   331    0.174673D-01    0.106779D+01    0.132782D+01    0.508848D-01
   0   332    0.179985D-01    0.106974D+01    0.413032D+01    0.458819D-01
   0   333    0.182789D-01    0.107079D+01   -0.474544D+01    0.434585D-01
   0   334    0.190013D-01    0.107236D+01   -0.981958D+01    0.381570D-01
   0   335    0.194274D-01    0.107341D+01    0.101497D+01    0.353314D-01
   0   336    0.199428D-01    0.107627D+01   -0.107148D+02    0.282138D-01
   0   337    0.203885D-01    0.107972D+01    0.121750D+02    0.185520D-01
   0   338    0.208366D-01    0.108135D+01    0.882700D+01    0.148405D-01
   0   339    0.212030D-01    0.108252D+01    0.944705D+01    0.119290D-01
   0   340    0.211892D-01    0.108497D+01    0.869014D+01    0.672365D-02
   0   341    0.212939D-01    0.108681D+01    0.897143D+01    0.132375D-02
   0   342    0.218571D-01    0.108878D+01    0.141101D+02   -0.295381D-02
   0   343    0.225501D-01    0.109153D+01    0.634839D+00   -0.117330D-01
   0   344    0.230515D-01    0.109420D+01   -0.117336D+02   -0.180830D-01
   0   345    0.234474D-01    0.109642D+01   -0.189359D+01   -0.249369D-01
   0   346    0.235717D-01    0.109768D+01    0.368862D+00   -0.274440D-01
   0   347    0.240638D-01    0.110024D+01   -0.392914D+01   -0.353696D-01
   0   348    0.244483D-01    0.110099D+01   -0.138822D+01   -0.356507D-01
   0   349    0.246694D-01    0.110289D+01    0.133682D+02   -0.412358D-01
   0   350    0.250629D-01    0.110472D+01   -0.962703D+01   -0.462403D-01
   0   351    0.259208D-01    0.110619D+01    0.115266D+02   -0.483197D-01
   0   352    0.261389D-01    0.110604D+01   -0.130370D+02   -0.489662D-01
   0   353    0.266387D-01    0.110633D+01   -0.968551D+01   -0.514633D-01
   0   354    0.268236D-01    0.110828D+01   -0.852483D+00   -0.552479D-01
   0   355    0.274752D-01    0.110790D+01    0.119795D+01   -0.540427D-01
   0   356    0.275749D-01    0.110817D+01    0.324958D+01   -0.546011D-01
   0   357    0.283037D-01    0.110980D+01   -0.134148D+02   -0.572955D-01
   0   358    0.293686D-01    0.110781D+01   -0.147996D+02   -0.540050D-01
   0   359    0.296264D-01    0.110874D+01   -0.133265D+02   -0.547571D-01
   0   360    0.303668D-01    0.110880D+01    0.459899D+01   -0.571644D-01
   0   361    0.310194D-01    0.110687D+01    0.559300D+01   -0.510581D-01
   0   362    0.318379D-01    0.110731D+01   -0.394541D+01   -0.515103D-01
   0   363    0.324547D-01    0.110518D+01   -0.145792D+02   -0.482824D-01
   0   364    0.334459D-01    0.110444D+01    0.150935D+02   -0.461538D-01
   0   365    0.340272D-01    0.110542D+01   -0.359105D+01   -0.464548D-01
   0   366    0.357451D-01    0.110286D+01   -0.122680D+02   -0.423131D-01
   0   367    0.372508D-01    0.110123D+01   -0.371200D+01   -0.370532D-01
   0   368    0.380590D-01    0.109961D+01    0.230098D+02   -0.327376D-01
   0   369    0.402393D-01    0.109798D+01    0.237566D+02   -0.271297D-01
   0   370    0.420853D-01    0.109610D+01   -0.274550D+02   -0.221502D-01
   0   371    0.441854D-01    0.109376D+01   -0.331040D+02   -0.179336D-01
   0   372    0.455712D-01    0.109144D+01   -0.798901D+01   -0.926088D-02
   0   373    0.490627D-01    0.108795D+01   -0.303384D+02   -0.386347D-02
   0   374    0.525154D-01    0.108341D+01    0.357644D+00    0.810501D-02
   0   375    0.576170D-01    0.108160D+01   -0.186263D+02    0.166182D-01
   0   376    0.626620D-01    0.107917D+01   -0.231236D+02    0.196399D-01
   0   377    0.701857D-01    0.107656D+01   -0.203021D+02    0.302011D-01
   0   378    0.780838D-01    0.107424D+01   -0.267440D+02    0.320263D-01
   0   379    0.839189D-01    0.107359D+01    0.199109D+01    0.340451D-01
   0   380    0.916021D-01    0.107622D+01   -0.868669D+01    0.320484D-01
   0   381    0.102363D+00    0.107313D+01   -0.117588D+02    0.340196D-01
   0   382    0.114398D+00    0.107490D+01   -0.108769D+02    0.292853D-01
   0   383    0.126440D+00    0.107916D+01    0.219864D+01    0.205050D-01
   0   384    0.137308D+00    0.108142D+01   -0.101363D+02    0.114035D-01
   0   385    0.151629D+00    0.108432D+01    0.140149D+02    0.458352D-02
   0   386    0.165690D+00    0.109132D+01   -0.896611D+02   -0.120313D-01
   0   387    0.174643D+00    0.109534D+01   -0.892011D+02   -0.186659D-01
   0   388    0.187783D+00    0.110058D+01    0.321460D+02   -0.344792D-01
   0   389    0.205373D+00    0.110815D+01   -0.743938D+02   -0.537244D-01
   0   390    0.224562D+00    0.111346D+01    0.168315D+02   -0.710282D-01
   0   391    0.244292D+00    0.111609D+01   -0.441480D+02   -0.760384D-01
   0   392    0.268223D+00    0.110127D+01    0.638297D+02   -0.388707D-01
   0   393    0.267315D+00    0.104474D+01    0.812209D+02    0.110477D+00
   0   394    0.146773D+00    0.840144D+00    0.202576D+03    0.314829D+00
   0   395    0.466223D-01    0.496880D+00    0.964637D+02    0.371231D+00
   0   396    0.120134D-01    0.247409D+00    0.296374D+02    0.384064D+00
   0   397    0.287758D-02    0.112630D+00    0.542654D+01    0.388323D+00