variables =  "IG"  "JG"  "PHI"  "Temp."  "Latent_heat"  "mm"
ZONE  I=  401  J=  101
   0     0    0.100000D+01    0.877126D+00    0.000000D+00    0.297883D+00
   0     1    0.100000D+01    0.877126D+00    0.000000D+00    0.297883D+00
   0     2    0.100000D+01    0.878278D+00    0.000000D+00    0.297318D+00
   0     3    0.100000D+01    0.880569D+00    0.000000D+00    0.296179D+00
   0     4    0.100000D+01    0.883977D+00    0.000000D+00    0.294446D+00
   0     5    0.100000D+01    0.888467D+00    0.000000D+00    0.292091D+00
   0     6    0.100000D+01    0.893991D+00    0.000000D+00    0.289074D+00
   0     7    0.100000D+01    0.900495D+00    0.000000D+00    0.285343D+00
   0     8    0.100000D+01    0.907911D+00    0.000000D+00    0.280834D+00
   0     9    0.100000D+01    0.916165D+00    0.000000D+00    0.275469D+00
   0    10    0.100000D+01    0.925174D+00    0.000000D+00    0.269156D+00
   0    11    0.100000D+01    0.934849D+00    0.000000D+00    0.261785D+00
   0    12    0.100000D+01    0.945092D+00    0.000000D+00    0.253232D+00
   0    13    0.100000D+01    0.955805D+00    0.000000D+00    0.243361D+00
   0    14    0.100000D+01    0.966882D+00    0.000000D+00    0.232023D+00
   0    15    0.100000D+01    0.978218D+00    0.000000D+00    0.219068D+00
   0    16    0.100000D+01    0.989704D+00    0.000000D+00    0.204363D+00
   0    17    0.100000D+01    0.100123D+01    0.000000D+00    0.187804D+00
   0    18    0.100000D+01    0.101270D+01    0.000000D+00    0.169358D+00
   0    19    0.100000D+01    0.102400D+01    0.000000D+00    0.149094D+00
   0    20    0.100000D+01    0.103503D+01    0.000000D+00    0.127220D+00
   0    21    0.100000D+01    0.104569D+01   -0.583411D-10    0.104111D+00
   0    22    0.100000D+01    0.105589D+01   -0.568826D-09    0.803030D-01
   0    23    0.100000D+01    0.106555D+01   -0.191067D-08    0.564538D-01
   0    24    0.100000D+01    0.107458D+01   -0.189609D-07    0.332653D-01
   0    25    0.100000D+01    0.108292D+01    0.631528D-06    0.113970D-01
   0    26    0.100000D+01    0.109049D+01    0.185073D-05   -0.860713D-02
   0    27    0.100000D+01    0.109723D+01   -0.110644D-04   -0.263554D-01
   0    28    0.100000D+01    0.110310D+01    0.608502D-05   -0.416074D-01
   0    29    0.999997D+00    0.110804D+01   -0.223167D-02   -0.542452D-01
   0    30    0.999978D+00    0.111201D+01   -0.613115D-02   -0.642339D-01
   0    31    0.999847D+00    0.111499D+01    0.415685D-01   -0.715866D-01
   0    32    0.998926D+00    0.111693D+01    0.695477D+00   -0.763458D-01
   0    33    0.992618D+00    0.111764D+01   -0.307183D+00   -0.781041D-01
   0    34    0.950211D+00    0.111682D+01   -0.124685D+02   -0.759099D-01
   0    35    0.699708D+00    0.111306D+01    0.147530D+03   -0.692462D-01
   0    36    0.107773D+00    0.111515D+01    0.149539D+02   -0.730124D-01
   0    37    0.139278D-01    0.111438D+01   -0.475173D+01   -0.703158D-01
   0    38    0.202383D-02    0.111283D+01   -0.542951D+00   -0.662535D-01
   0    39    0.555363D-03    0.111075D+01   -0.278367D+00   -0.610648D-01
   0    40    0.387794D-03    0.110840D+01    0.156478D+00   -0.551411D-01
   0    41    0.407874D-03    0.110576D+01   -0.202632D-01   -0.484564D-01
   0    42    0.469761D-03    0.110256D+01   -0.300939D+00   -0.402312D-01
   0    43    0.576737D-03    0.109884D+01   -0.349007D+00   -0.305543D-01
   0    44    0.778493D-03    0.109476D+01   -0.278044D+00   -0.198279D-01
   0    45    0.125535D-02    0.109125D+01   -0.563364D+00   -0.106914D-01
   0    46    0.218039D-02    0.108979D+01    0.141581D+00   -0.675526D-02
   0    47    0.322465D-02    0.109217D+01   -0.517729D+00   -0.129420D-01
   0    48    0.369651D-02    0.109700D+01   -0.109485D+01   -0.255840D-01
   0    49    0.363495D-02    0.110171D+01   -0.177289D+01   -0.379887D-01
   0    50    0.341575D-02    0.110534D+01    0.276354D+01   -0.471111D-01
   0    51    0.321086D-02    0.110720D+01   -0.200211D+01   -0.520745D-01
   0    52    0.309434D-02    0.110777D+01   -0.886563D+00   -0.535160D-01
   0    53    0.300155D-02    0.110829D+01   -0.967745D+00   -0.549273D-01
   0    54    0.306323D-02    0.110819D+01    0.183648D+01   -0.548253D-01
   0    55    0.316393D-02    0.110799D+01   -0.122904D+01   -0.542327D-01
   0    56    0.319312D-02    0.110830D+01   -0.109281D+01   -0.549180D-01
   0    57    0.321112D-02    0.110854D+01    0.513187D+00   -0.557770D-01
   0    58    0.320195D-02    0.110857D+01    0.778096D-01   -0.556388D-01
   0    59    0.333038D-02    0.110893D+01    0.193247D+00   -0.563392D-01
   0    60    0.343103D-02    0.110885D+01   -0.104194D+01   -0.560389D-01
   0    61    0.346898D-02    0.110836D+01    0.523237D+00   -0.549484D-01
   0    62    0.349961D-02    0.110779D+01    0.140714D+01   -0.537785D-01
   0    63    0.352318D-02    0.110723D+01    0.213103D+01   -0.522186D-01
   0    64    0.363286D-02    0.110711D+01    0.162453D+01   -0.517281D-01
   0    65    0.369304D-02    0.110608D+01    0.193572D+00   -0.494373D-01
   0    66    0.373950D-02    0.110564D+01   -0.173904D+01   -0.479872D-01
   0    67    0.381346D-02    0.110547D+01    0.116816D+01   -0.479027D-01
   0    68    0.391959D-02    0.110483D+01   -0.262939D+01   -0.459532D-01
   0    69    0.393273D-02    0.110418D+01    0.103342D+01   -0.445981D-01
   0    70    0.402043D-02    0.110355D+01   -0.565865D+00   -0.425079D-01
   0    71    0.410270D-02    0.110302D+01    0.182535D+01   -0.412575D-01
   0    72    0.414911D-02    0.110226D+01   -0.627996D+00   -0.396259D-01
   0    73    0.423658D-02    0.110110D+01   -0.233133D+01   -0.364249D-01
   0    74    0.434677D-02    0.110052D+01   -0.199901D+01   -0.351198D-01
   0    75    0.440383D-02    0.109958D+01    0.259328D+01   -0.326547D-01
   0    76    0.452689D-02    0.109856D+01    0.574467D+00   -0.298960D-01
   0    77    0.460647D-02    0.109724D+01   -0.386245D+00   -0.261020D-01
   0    78    0.476479D-02    0.109641D+01   -0.819552D-01   -0.243891D-01
   0    79    0.490529D-02    0.109493D+01    0.579044D+00   -0.204171D-01
   0    80    0.514862D-02    0.109378D+01   -0.238647D+01   -0.171196D-01
   0    81    0.519026D-02    0.109202D+01    0.310032D+01   -0.126253D-01
   0    82    0.531337D-02    0.109035D+01    0.342127D+01   -0.813282D-02
   0    83    0.562381D-02    0.108927D+01   -0.366756D+01   -0.519877D-02
   0    84    0.584916D-02    0.108762D+01   -0.367975D+01   -0.100635D-02
   0    85    0.600562D-02    0.108643D+01    0.438758D+00    0.198207D-02
   0    86    0.614161D-02    0.108464D+01   -0.203071D+01    0.695500D-02
   0    87    0.637956D-02    0.108315D+01    0.171029D+01    0.112757D-01
   0    88    0.660221D-02    0.108134D+01   -0.140898D+01    0.158992D-01
   0    89    0.683436D-02    0.107952D+01    0.327443D+01    0.204547D-01
   0    90    0.714508D-02    0.107779D+01   -0.235340D+01    0.250440D-01
   0    91    0.747411D-02    0.107687D+01    0.768423D+00    0.270923D-01
   0    92    0.770478D-02    0.107555D+01    0.413452D+01    0.311171D-01
   0    93    0.810723D-02    0.107358D+01   -0.183656D+01    0.359862D-01
   0    94    0.831688D-02    0.107262D+01   -0.725513D+00    0.385864D-01
   0    95    0.863457D-02    0.107119D+01   -0.376104D+01    0.417190D-01
   0    96    0.932746D-02    0.107021D+01    0.227560D+01    0.443142D-01
   0    97    0.977221D-02    0.106859D+01    0.179004D+01    0.490546D-01
   0    98    0.101756D-01    0.106776D+01    0.296730D+01    0.513372D-01
   0    99    0.109049D-01    0.106619D+01   -0.639761D+01    0.547522D-01
   0   100    0.116749D-01    0.106529D+01    0.344307D+01    0.566265D-01
   0   101    0.122467D-01    0.106363D+01   -0.805669D+01    0.610808D-01
   0   102    0.129057D-01    0.106320D+01   -0.121924D+01    0.624069D-01
   0   103    0.139223D-01    0.106275D+01    0.567909D+01    0.635450D-01
   0   104    0.147099D-01    0.106153D+01   -0.941947D+01    0.663509D-01
   0   105    0.155473D-01    0.106361D+01    0.271213D+01    0.620651D-01
   0   106    0.163350D-01    0.106404D+01    0.181001D+01    0.603087D-01
   0   107    0.169042D-01    0.106556D+01   -0.540866D+00    0.557094D-01
   0   108    0.173992D-01    0.106847D+01    0.638316D+01    0.498547D-01
   0   109    0.180518D-01    0.106877D+01   -0.126342D+02    0.487628D-01
   0   110    0.185530D-01    0.107243D+01   -0.994006D+01    0.378371D-01
   0   111    0.192885D-01    0.107437D+01    0.113219D+02    0.336296D-01
   0   112    0.205691D-01    0.107821D+01   -0.932373D+01    0.245382D-01
   0   113    0.212357D-01    0.108039D+01   -0.883206D+01    0.179839D-01
   0   114    0.212314D-01    0.108251D+01   -0.494424D+01    0.121862D-01
   0   115    0.212599D-01    0.108498D+01    0.797670D+01    0.690522D-02
   0   116    0.214158D-01    0.108800D+01   -0.654959D+01   -0.303846D-02
   0   117    0.219972D-01    0.109023D+01    0.147713D+02   -0.801270D-02
   0   118    0.228027D-01    0.109205D+01   -0.484211D+01   -0.124175D-01
   0   119    0.229445D-01    0.109502D+01   -0.950435D+01   -0.198689D-01
   0   120    0.235342D-01    0.109624D+01   -0.123439D+02   -0.237335D-01
   0   121    0.237384D-01    0.110064D+01    0.205537D+01   -0.350807D-01
   0   122    0.242732D-01    0.110217D+01    0.107263D+02   -0.389676D-01
   0   123    0.247711D-01    0.110268D+01    0.116786D+02   -0.409710D-01
   0   124    0.251082D-01    0.110419D+01    0.589001D+01   -0.435516D-01
   0   125    0.260885D-01    0.110554D+01   -0.352009D+00   -0.474027D-01
   0   126    0.260281D-01    0.110642D+01   -0.403918D+01   -0.508902D-01
   0   127    0.267713D-01    0.110747D+01    0.137418D+02   -0.526928D-01
   0   128    0.271180D-01    0.110895D+01    0.176917D+02   -0.569253D-01
   0   129    0.277192D-01    0.110986D+01   -0.138946D+01   -0.585663D-01
   0   130    0.283733D-01    0.110934D+01   -0.167284D+02   -0.558943D-01
   0   131    0.291169D-01    0.110790D+01    0.104124D+01   -0.541413D-01
   0   132    0.299034D-01    0.110826D+01   -0.181391D+02   -0.551366D-01
   0   133    0.305454D-01    0.110779D+01    0.929282D+01   -0.539591D-01
   0   134    0.314239D-01    0.110643D+01    0.291939D+01   -0.502872D-01
   0   135    0.320140D-01    0.110648D+01    0.136567D+02   -0.510322D-01
   0   136    0.334058D-01    0.110457D+01    0.464150D-01   -0.455533D-01
   0   137    0.349418D-01    0.110338D+01    0.919202D+01   -0.418822D-01
   0   138    0.361998D-01    0.110168D+01    0.579187D+01   -0.399753D-01
   0   139    0.384274D-01    0.109989D+01   -0.167447D+02   -0.315057D-01
   0   140    0.393511D-01    0.109730D+01    0.904268D+00   -0.261680D-01
   0   141    0.412967D-01    0.109661D+01   -0.297850D+01   -0.258871D-01
   0   142    0.437713D-01    0.109274D+01   -0.270000D+02   -0.167421D-01
   0   143    0.466894D-01    0.109180D+01   -0.662162D+01   -0.107785D-01
   0   144    0.496909D-01    0.108857D+01    0.212000D+02   -0.145924D-02
   0   145    0.529832D-01    0.108427D+01   -0.288400D+02    0.722870D-02
   0   146    0.573191D-01    0.108421D+01   -0.289380D+02    0.872323D-02
   0   147    0.628744D-01    0.108227D+01   -0.356164D+02    0.106501D-01
   0   148    0.677107D-01    0.107939D+01   -0.831241D+01    0.229946D-01
   0   149    0.750498D-01    0.107540D+01   -0.975594D+01    0.290596D-01
   0   150    0.838577D-01    0.107489D+01   -0.168390D+02    0.345073D-01
   0   151    0.920492D-01    0.107434D+01    0.404152D+02    0.361497D-01
   0   152    0.101446D+00    0.107391D+01   -0.584202D+02    0.386753D-01
   0   153    0.110790D+00    0.107600D+01    0.305621D+02    0.289372D-01
   0   154    0.120981D+00    0.107597D+01   -0.315084D+02    0.261392D-01
   0   155    0.131776D+00    0.107712D+01    0.391355D+02    0.244328D-01
   0   156    0.140166D+00    0.108277D+01   -0.720671D+02    0.120221D-01
   0   157    0.150520D+00    0.108520D+01   -0.335610D+01    0.647415D-02
   0   158    0.163838D+00    0.109334D+01   -0.827585D+01   -0.187806D-01
   0   159    0.173874D+00    0.109658D+01    0.374328D+02   -0.205610D-01
   0   160    0.186056D+00    0.109957D+01    0.881463D+02   -0.320892D-01
   0   161    0.201069D+00    0.110804D+01    0.494398D+02   -0.524895D-01
   0   162    0.217919D+00    0.110950D+01   -0.127195D+03   -0.577815D-01
   0   163    0.236438D+00    0.110763D+01    0.522694D+02   -0.542977D-01
   0   164    0.263591D+00    0.110112D+01   -0.142139D+03   -0.339225D-01
   0   165    0.265173D+00    0.104526D+01    0.139137D+03    0.106126D+00
   0   166    0.155600D+00    0.857041D+00    0.139351D+03    0.308022D+00
   0   167    0.507159D-01    0.518164D+00    0.959507D+02    0.369590D+00
   0   168    0.132485D-01    0.260466D+00    0.251221D+02    0.383582D+00
   0   169    0.311114D-02    0.119477D+00    0.548878D+01    0.388135D+00
   0   170    0.698631D-03    0.521403D-01    0.107164D+01    0.389878D+00
   0   171    0.154776D-03    0.221013D-01    0.335860D+00    0.390585D+00
   0   172    0.332714D-04    0.919873D-02    0.686198D-01    0.390877D+00
   0   173    0.719669D-05    0.378151D-02    0.183809D-01    0.390998D+00
   0   174    0.153887D-05    0.154098D-02    0.269005D-02    0.391047D+00
   0   175    0.325604D-06    0.624004D-03    0.707026D-03    0.391067D+00
   0   176    0.670143D-07    0.251471D-03    0.183768D-03    0.391076D+00
   0   177    0.136980D-07    0.100963D-03    0.353115D-04    0.391079D+00
   0   178    0.281663D-08    0.404146D-04    0.569560D-05    0.391080D+00
   0   179    0.564215D-09    0.161388D-04    0.912228D-06    0.391081D+00
   0   180    0.112452D-09    0.643220D-05    0.261252D-06    0.391081D+00
   0   181    0.227276D-10    0.255957D-05    0.625552D-07    0.391081D+00
   0   182    0.456139D-11    0.101725D-05    0.739562D-08    0.391081D+00
   0   183    0.926619D-12    0.403875D-06    0.143050D-08    0.391081D+00
   0   184    0.186964D-12    0.160221D-06    0.305343D-09    0.391081D+00
   0   185    0.370011D-13    0.635207D-07    0.964348D-10    0.391081D+00
   0   186    0.763643D-14    0.251708D-07    0.113661D-10    0.391081D+00
   0   187    0.148462D-14    0.997048D-08    0.423442D-11    0.391081D+00
   0   188    0.294224D-15    0.394832D-08    0.512281D-12    0.391081D+00
   0   189    0.575634D-16    0.156323D-08    0.129047D-12    0.391081D+00
   0   190    0.114815D-16    0.618844D-09    0.288033D-13    0.391081D+00
   0   191    0.225881D-17    0.244969D-09    0.560361D-14    0.391081D+00
   0   192    0.454582D-18    0.969704D-10    0.705487D-15    0.391081D+00
   0   193    0.880776D-19    0.383870D-10    0.154794D-15    0.391081D+00
   0   194    0.171222D-19    0.151973D-10    0.404469D-16    0.391081D+00
   0   195    0.341964D-20    0.601726D-11    0.655185D-17    0.391081D+00
   0   196    0.668658D-21    0.238285D-11    0.161278D-17    0.391081D+00
   0   197    0.132099D-21    0.943785D-12    0.261545D-18    0.391081D+00
   0   198    0.260289D-22    0.373882D-12    0.745996D-19    0.391081D+00
   0   199    0.504755D-23    0.148147D-12    0.858696D-20    0.391081D+00
   0   200    0.988160D-24    0.587154D-13    0.249801D-20    0.391081D+00
   0   201    0.192956D-24    0.232766D-13    0.397592D-21    0.391081D+00
   0   202    0.377558D-25    0.922995D-14    0.632276D-22    0.391081D+00
   0   203    0.744604D-26    0.366096D-14    0.158185D-22    0.391081D+00
   0   204    0.147899D-26    0.145248D-14    0.231150D-23    0.391081D+00
   0   205    0.289950D-27    0.576429D-15    0.757915D-24    0.391081D+00
   0   206    0.558099D-28    0.228825D-15    0.147924D-24    0.391081D+00
   0   207    0.108182D-28    0.908625D-16    0.251295D-25    0.391081D+00
   0   208    0.213940D-29    0.360903D-16    0.485162D-26    0.391081D+00
   0   209    0.416418D-30    0.143390D-16    0.966691D-27    0.391081D+00
   0   210    0.823438D-31    0.569868D-17    0.202243D-27    0.391081D+00
   0   211    0.159497D-31    0.226544D-17    0.379169D-28    0.391081D+00
   0   212    0.312075D-32    0.900855D-18    0.857866D-29    0.391081D+00
   0   213    0.604995D-33    0.358328D-18    0.171208D-29    0.391081D+00
   0   214    0.118008D-33    0.142570D-18    0.245410D-30    0.391081D+00
   0   215    0.227812D-34    0.567413D-19    0.472696D-31    0.391081D+00
   0   216    0.448359D-35    0.225887D-19    0.121797D-31    0.391081D+00
   0   217    0.890935D-36    0.899501D-20    0.130465D-32    0.391081D+00
   0   218    0.172210D-36    0.358287D-20    0.361008D-33    0.391081D+00
   0   219    0.336153D-37    0.142751D-20    0.887087D-34    0.391081D+00
   0   220    0.659914D-38    0.568904D-21    0.147995D-34    0.391081D+00
   0   221    0.127675D-38    0.226784D-21    0.214214D-35    0.391081D+00
   0   222    0.244399D-39    0.904270D-22    0.431988D-36    0.391081D+00
   0   223    0.485101D-40    0.360655D-22    0.800171D-37    0.391081D+00
   0   224    0.955407D-41    0.143877D-22    0.228408D-37    0.391081D+00
   0   225    0.187206D-41    0.574105D-23    0.481313D-38    0.391081D+00
   0   226    0.365123D-42    0.229135D-23    0.871371D-39    0.391081D+00
   0   227    0.700754D-43    0.914720D-24    0.195372D-39    0.391081D+00
   0   228    0.135935D-43    0.365239D-24    0.351295D-40    0.391081D+00
   0   229    0.260422D-44    0.145867D-24    0.599376D-41    0.391081D+00
   0   230    0.506216D-45    0.582666D-25    0.138003D-41    0.391081D+00
   0   231    0.989584D-46    0.232790D-25    0.205972D-42    0.391081D+00
   0   232    0.193014D-46    0.930225D-26    0.384875D-43    0.391081D+00
   0   233    0.378825D-47    0.371779D-26    0.999930D-44    0.391081D+00
   0   234    0.746643D-48    0.148611D-26    0.185986D-44    0.391081D+00
   0   235    0.147686D-48    0.594133D-27    0.348095D-45    0.391081D+00
   0   236    0.286369D-49    0.237562D-27    0.595679D-46    0.391081D+00
   0   237    0.554724D-50    0.950012D-28    0.107365D-46    0.391081D+00
   0   238    0.107991D-50    0.379957D-28    0.184393D-47    0.391081D+00
   0   239    0.209416D-51    0.151981D-28    0.575982D-48    0.391081D+00
   0   240    0.405614D-52    0.607977D-29    0.103958D-48    0.391081D+00
   0   241    0.785471D-53    0.243235D-29    0.141811D-49    0.391081D+00
   0   242    0.151612D-53    0.973202D-30    0.267080D-50    0.391081D+00
   0   243    0.292023D-54    0.389414D-30    0.697487D-51    0.391081D+00
   0   244    0.566709D-55    0.155829D-30    0.150812D-51    0.391081D+00
   0   245    0.110756D-55    0.623603D-31    0.218150D-52    0.391081D+00
   0   246    0.215956D-56    0.249567D-31    0.555137D-53    0.391081D+00
   0   247    0.429094D-57    0.998808D-32    0.107079D-53    0.391081D+00
   0   248    0.829091D-58    0.399748D-32    0.192608D-54    0.391081D+00
   0   249    0.159924D-58    0.159992D-32    0.452403D-55    0.391081D+00
   0   250    0.306927D-59    0.640339D-33    0.765842D-56    0.391081D+00
   0   251    0.600463D-60    0.256283D-33    0.136370D-56    0.391081D+00
   0   252    0.117181D-60    0.102570D-33    0.326958D-57    0.391081D+00
   0   253    0.234727D-61    0.410499D-34    0.406096D-58    0.391081D+00
   0   254    0.452926D-62    0.164281D-34    0.120729D-58    0.391081D+00
   0   255    0.898179D-63    0.657419D-35    0.223276D-59    0.391081D+00
   0   256    0.174620D-63    0.263071D-35    0.451872D-60    0.391081D+00
   0   257    0.341247D-64    0.105263D-35    0.574837D-61    0.391081D+00
   0   258    0.665113D-65    0.421157D-36    0.176453D-61    0.391081D+00
   0   259    0.132208D-65    0.168491D-36    0.196759D-62    0.391081D+00
   0   260    0.258104D-66    0.674017D-37    0.646005D-63    0.391081D+00
   0   261    0.501909D-67    0.269600D-37    0.873141D-64    0.391081D+00
   0   262    0.971018D-68    0.107826D-37    0.238903D-64    0.391081D+00
   0   263    0.186704D-68    0.431195D-38    0.551782D-65    0.391081D+00
   0   264    0.365964D-69    0.172413D-38    0.891552D-66    0.391081D+00
   0   265    0.710013D-70    0.689305D-39    0.202813D-66    0.391081D+00
   0   266    0.137735D-70    0.275544D-39    0.276605D-67    0.391081D+00
   0   267    0.269029D-71    0.110131D-39    0.744318D-68    0.391081D+00
   0   268    0.518562D-72    0.440107D-40    0.129587D-68    0.391081D+00
   0   269    0.100980D-72    0.175849D-40    0.169206D-69    0.391081D+00
   0   270    0.194376D-73    0.702507D-41    0.515761D-70    0.391081D+00
   0   271    0.385683D-74    0.280600D-41    0.850178D-71    0.391081D+00
   0   272    0.746308D-75    0.112059D-41    0.135661D-71    0.391081D+00
   0   273    0.146626D-75    0.447433D-42    0.232418D-72    0.391081D+00
   0   274    0.287236D-76    0.178619D-42    0.664997D-73    0.391081D+00
   0   275    0.553081D-77    0.712920D-43    0.134820D-73    0.391081D+00
   0   276    0.108980D-77    0.284491D-43    0.283895D-74    0.391081D+00
   0   277    0.211327D-78    0.113503D-43    0.416052D-75    0.391081D+00
   0   278    0.404589D-79    0.452745D-44    0.795444D-76    0.391081D+00
   0   279    0.801626D-80    0.180553D-44    0.144798D-76    0.391081D+00
   0   280    0.154412D-80    0.719876D-45    0.271060D-77    0.391081D+00
   0   281    0.304626D-81    0.286953D-45    0.703171D-78    0.391081D+00
   0   282    0.597896D-82    0.114356D-45    0.169625D-78    0.391081D+00
   0   283    0.116713D-82    0.455618D-46    0.293716D-79    0.391081D+00
   0   284    0.225859D-83    0.181481D-46    0.458741D-80    0.391081D+00
   0   285    0.443670D-84    0.722684D-47    0.125609D-80    0.391081D+00
   0   286    0.876297D-85    0.287704D-47    0.194763D-81    0.391081D+00
   0   287    0.169262D-85    0.114505D-47    0.405854D-82    0.391081D+00
   0   288    0.334779D-86    0.455588D-48    0.662924D-83    0.391081D+00
   0   289    0.632578D-87    0.181213D-48    0.116342D-83    0.391081D+00
   0   290    0.123125D-87    0.720563D-49    0.284359D-84    0.391081D+00
   0   291    0.239293D-88    0.286426D-49    0.465908D-85    0.391081D+00
   0   292    0.476433D-89    0.113817D-49    0.889021D-86    0.391081D+00
   0   293    0.931595D-90    0.452115D-50    0.160119D-86    0.391081D+00
   0   294    0.183222D-90    0.179528D-50    0.315698D-87    0.391081D+00
   0   295    0.359230D-91    0.712611D-51    0.605331D-88    0.391081D+00
   0   296    0.697673D-92    0.282749D-51    0.119374D-88    0.391081D+00
   0   297    0.136534D-92    0.112143D-51    0.267219D-89    0.391081D+00
   0   298    0.264722D-93    0.444588D-52    0.630185D-90    0.391081D+00
   0   299    0.522184D-94    0.176178D-52    0.133267D-90    0.391081D+00
   0   300    0.103143D-94    0.697822D-53    0.180384D-91    0.391081D+00
   0   301    0.197055D-95    0.276268D-53    0.374390D-92    0.391081D+00
   0   302    0.385178D-96    0.109320D-53    0.854603D-93    0.391081D+00
   0   303    0.749655D-97    0.432357D-54    0.147136D-93    0.391081D+00
   0   304    0.147018D-97    0.170904D-54    0.266643D-94    0.391081D+00
   0   305    0.291472D-98    0.675180D-55    0.662935D-95    0.391081D+00
   0   306    0.561837D-99    0.266584D-55    0.100701D-95    0.391081D+00
   0   307    0.110138D-99    0.105193D-55    0.278907D-96    0.391081D+00
   0   308    0.216959-100    0.414827D-56    0.600865D-97    0.391081D+00
   0   309    0.419088-101    0.163480D-56    0.975116D-98    0.391081D+00
   0   310    0.801995-102    0.643830D-57    0.232092D-98    0.391081D+00
   0   311    0.158477-102    0.253381D-57    0.379821D-99    0.391081D+00
   0   312    0.311019-103    0.996471D-58    0.840230-100    0.391081D+00
   0   313    0.606159-104    0.391590D-58    0.162904-100    0.391081D+00
   0   314    0.118185-104    0.153767D-58    0.321313-101    0.391081D+00
   0   315    0.234949-105    0.603320D-59    0.556512-102    0.391081D+00
   0   316    0.454722-106    0.236525D-59    0.857011-103    0.391081D+00
   0   317    0.898989-107    0.926484D-60    0.186255-103    0.391081D+00
   0   318    0.176038-107    0.362593D-60    0.385369-104    0.391081D+00
   0   319    0.339159-108    0.141779D-60    0.793125-105    0.391081D+00
   0   320    0.660902-109    0.553863D-61    0.132870-105    0.391081D+00
   0   321    0.129141-109    0.216163D-61    0.226189-106    0.391081D+00
   0   322    0.250726-110    0.842821D-62    0.561940-107    0.391081D+00
   0   323    0.495743-111    0.328288D-62    0.904552-108    0.391081D+00
   0   324    0.980668-112    0.127741D-62    0.252027-108    0.391081D+00
   0   325    0.192029-112    0.496534D-63    0.376916-109    0.391081D+00
   0   326    0.369455-113    0.192797D-63    0.815040-110    0.391081D+00
   0   327    0.717908-114    0.747782D-64    0.142181-110    0.391081D+00
   0   328    0.140804-114    0.289708D-64    0.256863-111    0.391081D+00
   0   329    0.278455-115    0.112111D-64    0.600670-112    0.391081D+00
   0   330    0.551139-116    0.433338D-65    0.999473-113    0.391081D+00
   0   331    0.110014-116    0.167296D-65    0.277457-113    0.391081D+00
   0   332    0.212080-117    0.645085D-66    0.579327-114    0.391081D+00
   0   333    0.407411-118    0.248433D-66    0.745421-115    0.391081D+00
   0   334    0.787225-119    0.955554D-67    0.233431-115    0.391081D+00
   0   335    0.152909-119    0.367065D-67    0.395694-116    0.391081D+00
   0   336    0.305408-120    0.140820D-67    0.542452-117    0.391081D+00
   0   337    0.588933-121    0.539524D-68    0.106049-117    0.391081D+00
   0   338    0.113424-121    0.206431D-68    0.198339-118    0.391081D+00
   0   339    0.222403-122    0.788759D-69    0.396904-119    0.391081D+00
   0   340    0.440141-123    0.300964D-69    0.105902-119    0.391081D+00
   0   341    0.869636-124    0.114677D-69    0.150823-120    0.391081D+00
   0   342    0.170209-124    0.436337D-70    0.473674-121    0.391081D+00
   0   343    0.337994-125    0.165784D-70    0.751904-122    0.391081D+00
   0   344    0.663853-126    0.628975D-71    0.116427-122    0.391081D+00
   0   345    0.132090-126    0.238279D-71    0.235933-123    0.391081D+00
   0   346    0.257411-127    0.901346D-72    0.726081-124    0.391081D+00
   0   347    0.501926-128    0.340444D-72    0.112787-124    0.391081D+00
   0   348    0.993032-129    0.128393D-72    0.169375-125    0.391081D+00
   0   349    0.197557-129    0.483473D-73    0.372977-126    0.391081D+00
   0   350    0.386734-130    0.181774D-73    0.734183-127    0.391081D+00
   0   351    0.754026-131    0.682362D-74    0.186405-127    0.391081D+00
   0   352    0.147756-131    0.255750D-74    0.423733-128    0.391081D+00
   0   353    0.293604-132    0.957034D-75    0.784070-129    0.391081D+00
   0   354    0.574542-133    0.357558D-75    0.139367-129    0.391081D+00
   0   355    0.111944-133    0.133372D-75    0.230546-130    0.391081D+00
   0   356    0.218207-134    0.496687D-76    0.524070-131    0.391081D+00
   0   357    0.425015-135    0.184668D-76    0.120316-131    0.391081D+00
   0   358    0.847382-136    0.685468D-77    0.145419-132    0.391081D+00
   0   359    0.163700-136    0.254019D-77    0.283207-133    0.391081D+00
   0   360    0.325270-137    0.939772D-78    0.629360-134    0.391081D+00
   0   361    0.638206-138    0.347099D-78    0.134030-134    0.391081D+00
   0   362    0.125327-138    0.127984D-78    0.213087-135    0.391081D+00
   0   363    0.244925-139    0.471112D-79    0.453737-136    0.391081D+00
   0   364    0.474706-140    0.173123D-79    0.135978-136    0.391081D+00
   0   365    0.928308-141    0.635107D-80    0.198191-137    0.391081D+00
   0   366    0.183673-141    0.232592D-80    0.300717-138    0.391081D+00
   0   367    0.368489-142    0.850346D-81    0.693583-139    0.391081D+00
   0   368    0.720668-143    0.310346D-81    0.157573-139    0.391081D+00
   0   369    0.140534-143    0.113069D-81    0.231187-140    0.391081D+00
   0   370    0.269201-144    0.411232D-82    0.548193-141    0.391081D+00
   0   371    0.538327-145    0.149304D-82    0.128242-141    0.391081D+00
   0   372    0.105384-145    0.541120D-83    0.188062-142    0.391081D+00
   0   373    0.206133-146    0.195773D-83    0.491481-143    0.391081D+00
   0   374    0.409166-147    0.707046D-84    0.897952-144    0.391081D+00
   0   375    0.791988-148    0.254902D-84    0.212240-144    0.391081D+00
   0   376    0.154457-148    0.917338D-85    0.419899-145    0.391081D+00
   0   377    0.306460-149    0.329544D-85    0.753755-146    0.391081D+00
   0   378    0.604117-150    0.118174D-85    0.100506-146    0.391081D+00
   0   379    0.119694-150    0.423016D-86    0.224760-147    0.391081D+00
   0   380    0.237249-151    0.151152D-86    0.437293-148    0.391081D+00
   0   381    0.470368-152    0.539127D-87    0.964892-149    0.391081D+00
   0   382    0.911440-153    0.191950D-87    0.170730-149    0.391081D+00
   0   383    0.178431-153    0.682183D-88    0.355802-150    0.391081D+00
   0   384    0.348319-154    0.242009D-88    0.841608-151    0.391081D+00
   0   385    0.685675-155    0.856991D-89    0.185557-151    0.391081D+00
   0   386    0.134680-155    0.302925D-89    0.239221-152    0.391081D+00
   0   387    0.264751-156    0.106882D-89    0.459517-153    0.391081D+00
   0   388    0.523380-157    0.376434D-90    0.123293-153    0.391081D+00
   0   389    0.100770-157    0.132337D-90    0.204287-154    0.391081D+00
   0   390    0.196707-158    0.464392D-91    0.433762-155    0.391081D+00
   0   391    0.392553-159    0.162665D-91    0.615064-156    0.391081D+00
   0   392    0.771165-160    0.568740D-92    0.218700-156    0.391081D+00
   0   393    0.150389-160    0.198490D-92    0.438842-157    0.391081D+00
   0   394    0.296988-161    0.691462D-93    0.680588-158    0.391081D+00
   0   395    0.568666-162    0.240434D-93    0.124232-158    0.391081D+00
   0   396    0.112862-162    0.834375D-94    0.212116-159    0.391081D+00
   0   397    0.223015-163    0.288648D-94    0.525384-160    0.391081D+00