variables =  "IG"  "JG"  "PHI"  "Temp."  "Latent_heat"  "mm"
ZONE  I=  401  J=  101
   0     0    0.100000D+01    0.948104D+00    0.000000D+00    0.250559D+00
   0     1    0.100000D+01    0.948104D+00    0.000000D+00    0.250559D+00
   0     2    0.100000D+01    0.948670D+00    0.000000D+00    0.250048D+00
   0     3    0.100000D+01    0.949799D+00    0.000000D+00    0.249020D+00
   0     4    0.100000D+01    0.951481D+00    0.000000D+00    0.247468D+00
   0     5    0.100000D+01    0.953703D+00    0.000000D+00    0.245379D+00
   0     6    0.100000D+01    0.956449D+00    0.000000D+00    0.242736D+00
   0     7    0.100000D+01    0.959697D+00    0.000000D+00    0.239517D+00
   0     8    0.100000D+01    0.963422D+00    0.000000D+00    0.235698D+00
   0     9    0.100000D+01    0.967597D+00    0.000000D+00    0.231250D+00
   0    10    0.100000D+01    0.972189D+00    0.000000D+00    0.226141D+00
   0    11    0.100000D+01    0.977164D+00    0.000000D+00    0.220338D+00
   0    12    0.100000D+01    0.982484D+00    0.000000D+00    0.213805D+00
   0    13    0.100000D+01    0.988109D+00    0.000000D+00    0.206510D+00
   0    14    0.100000D+01    0.993998D+00    0.000000D+00    0.198421D+00
   0    15    0.100000D+01    0.100011D+01    0.000000D+00    0.189512D+00
   0    16    0.100000D+01    0.100639D+01    0.000000D+00    0.179769D+00
   0    17    0.100000D+01    0.101280D+01    0.000000D+00    0.169191D+00
   0    18    0.100000D+01    0.101929D+01    0.000000D+00    0.157795D+00
   0    19    0.100000D+01    0.102582D+01    0.000000D+00    0.145625D+00
   0    20    0.100000D+01    0.103234D+01    0.000000D+00    0.132751D+00
   0    21    0.100000D+01    0.103879D+01   -0.145853D-10    0.119277D+00
   0    22    0.100000D+01    0.104514D+01   -0.875117D-10    0.105340D+00
   0    23    0.100000D+01    0.105135D+01   -0.156063D-08    0.911077D-01
   0    24    0.100000D+01    0.105735D+01    0.530904D-08    0.767744D-01
   0    25    0.100000D+01    0.106313D+01    0.446164D-07    0.625504D-01
   0    26    0.100000D+01    0.106862D+01    0.562234D-06    0.486522D-01
   0    27    0.100000D+01    0.107381D+01    0.423579D-05    0.352905D-01
   0    28    0.100000D+01    0.107864D+01    0.567541D-04    0.226593D-01
   0    29    0.999999D+00    0.108310D+01    0.155145D-03    0.109285D-01
   0    30    0.999992D+00    0.108714D+01    0.245979D-02    0.241095D-03
   0    31    0.999937D+00    0.109075D+01    0.460581D-02   -0.928340D-02
   0    32    0.999509D+00    0.109386D+01   -0.196212D+00   -0.175182D-01
   0    33    0.996320D+00    0.109644D+01   -0.103231D+01   -0.242611D-01
   0    34    0.973268D+00    0.109851D+01   -0.130371D+02   -0.298525D-01
   0    35    0.815043D+00    0.110075D+01   -0.191804D+01   -0.331141D-01
   0    36    0.149089D+00    0.110037D+01    0.652135D+02   -0.357324D-01
   0    37    0.202512D-01    0.110108D+01    0.430904D+01   -0.367369D-01
   0    38    0.277304D-02    0.110089D+01   -0.271013D+00   -0.359359D-01
   0    39    0.437177D-03    0.109997D+01   -0.415851D-01   -0.334830D-01
   0    40    0.124973D-03    0.109856D+01   -0.672575D-01   -0.298248D-01
   0    41    0.869673D-04    0.109674D+01    0.672595D-01   -0.250546D-01
   0    42    0.102934D-03    0.109463D+01   -0.272074D-02   -0.195212D-01
   0    43    0.153559D-03    0.109251D+01    0.524486D-01   -0.139150D-01
   0    44    0.269216D-03    0.109084D+01   -0.999491D-01   -0.955343D-02
   0    45    0.440240D-03    0.109007D+01   -0.791745D-01   -0.746381D-02
   0    46    0.579209D-03    0.109028D+01   -0.250747D-01   -0.802137D-02
   0    47    0.635199D-03    0.109102D+01    0.382213D+00   -0.100204D-01
   0    48    0.650937D-03    0.109172D+01    0.400964D-01   -0.117968D-01
   0    49    0.648757D-03    0.109211D+01    0.385460D+00   -0.128648D-01
   0    50    0.663408D-03    0.109240D+01   -0.256907D+00   -0.136683D-01
   0    51    0.650192D-03    0.109269D+01    0.414662D+00   -0.143412D-01
   0    52    0.658865D-03    0.109292D+01    0.670952D-01   -0.149412D-01
   0    53    0.656906D-03    0.109295D+01   -0.137846D+00   -0.150109D-01
   0    54    0.644693D-03    0.109292D+01   -0.297522D+00   -0.149965D-01
   0    55    0.641422D-03    0.109294D+01    0.402361D+00   -0.150221D-01
   0    56    0.651271D-03    0.109283D+01   -0.213446D-01   -0.147709D-01
   0    57    0.656505D-03    0.109266D+01   -0.103401D+00   -0.143051D-01
   0    58    0.664633D-03    0.109232D+01    0.108850D+00   -0.133834D-01
   0    59    0.678456D-03    0.109179D+01    0.190391D+00   -0.120435D-01
   0    60    0.673392D-03    0.109117D+01   -0.442607D+00   -0.103607D-01
   0    61    0.679706D-03    0.109045D+01    0.334112D+00   -0.846362D-02
   0    62    0.698380D-03    0.108955D+01   -0.188060D+00   -0.615723D-02
   0    63    0.713400D-03    0.108868D+01    0.563280D-01   -0.378027D-02
   0    64    0.731364D-03    0.108768D+01   -0.209706D+00   -0.117952D-02
   0    65    0.756010D-03    0.108676D+01   -0.250996D+00    0.131483D-02
   0    66    0.794165D-03    0.108588D+01   -0.373293D+00    0.360209D-02
   0    67    0.805118D-03    0.108505D+01    0.792257D-01    0.580122D-02
   0    68    0.813964D-03    0.108418D+01    0.214502D+00    0.807436D-02
   0    69    0.824869D-03    0.108335D+01    0.540121D+00    0.102945D-01
   0    70    0.852587D-03    0.108254D+01   -0.535995D+00    0.124394D-01
   0    71    0.865892D-03    0.108175D+01   -0.324440D+00    0.145391D-01
   0    72    0.890996D-03    0.108092D+01    0.537748D+00    0.167655D-01
   0    73    0.924163D-03    0.108014D+01   -0.671238D-01    0.187980D-01
   0    74    0.947060D-03    0.107911D+01    0.363307D+00    0.214363D-01
   0    75    0.970243D-03    0.107797D+01    0.419313D+00    0.243780D-01
   0    76    0.994627D-03    0.107697D+01   -0.456021D-01    0.269839D-01
   0    77    0.104990D-02    0.107582D+01   -0.434461D+00    0.299921D-01
   0    78    0.106211D-02    0.107450D+01    0.159475D+00    0.335042D-01
   0    79    0.110934D-02    0.107320D+01    0.666255D-01    0.369046D-01
   0    80    0.116264D-02    0.107185D+01   -0.764354D+00    0.403398D-01
   0    81    0.121879D-02    0.107057D+01   -0.333458D+00    0.437279D-01
   0    82    0.126352D-02    0.106931D+01    0.367242D-01    0.468941D-01
   0    83    0.134667D-02    0.106817D+01    0.926648D-02    0.498170D-01
   0    84    0.137601D-02    0.106735D+01    0.489313D-01    0.519614D-01
   0    85    0.141671D-02    0.106674D+01   -0.664449D+00    0.534863D-01
   0    86    0.144876D-02    0.106622D+01   -0.955430D+00    0.548098D-01
   0    87    0.144880D-02    0.106589D+01    0.419295D+00    0.557055D-01
   0    88    0.148944D-02    0.106564D+01    0.645259D+00    0.562328D-01
   0    89    0.153864D-02    0.106512D+01    0.901552D+00    0.575420D-01
   0    90    0.160556D-02    0.106465D+01   -0.118070D+01    0.587483D-01
   0    91    0.166086D-02    0.106432D+01    0.184229D+00    0.594989D-01
   0    92    0.171687D-02    0.106427D+01   -0.688738D+00    0.597249D-01
   0    93    0.186190D-02    0.106373D+01    0.701557D+00    0.609724D-01
   0    94    0.200431D-02    0.106365D+01   -0.150121D+01    0.613211D-01
   0    95    0.202251D-02    0.106390D+01   -0.126982D+01    0.606221D-01
   0    96    0.206951D-02    0.106438D+01    0.860978D+00    0.593074D-01
   0    97    0.214327D-02    0.106489D+01    0.301863D+00    0.580144D-01
   0    98    0.215316D-02    0.106560D+01   -0.841565D+00    0.564827D-01
   0    99    0.221033D-02    0.106678D+01    0.122117D+01    0.534423D-01
   0   100    0.228416D-02    0.106813D+01    0.966507D+00    0.499323D-01
   0   101    0.229545D-02    0.106945D+01   -0.367838D+00    0.464493D-01
   0   102    0.233893D-02    0.107080D+01   -0.122997D+01    0.431234D-01
   0   103    0.238467D-02    0.107267D+01    0.960039D+00    0.380819D-01
   0   104    0.245115D-02    0.107471D+01    0.841554D+00    0.328597D-01
   0   105    0.252932D-02    0.107683D+01    0.568144D+00    0.273755D-01
   0   106    0.259629D-02    0.107872D+01    0.839248D-01    0.224891D-01
   0   107    0.263743D-02    0.108055D+01   -0.183461D+01    0.175375D-01
   0   108    0.261363D-02    0.108253D+01   -0.863892D+00    0.122386D-01
   0   109    0.259810D-02    0.108382D+01   -0.309965D+00    0.897036D-02
   0   110    0.260055D-02    0.108523D+01   -0.885793D+00    0.541745D-02
   0   111    0.263912D-02    0.108703D+01    0.913600D+00    0.466069D-03
   0   112    0.273241D-02    0.108911D+01    0.435606D+00   -0.505426D-02
   0   113    0.277986D-02    0.109128D+01   -0.982256D+00   -0.106922D-01
   0   114    0.276744D-02    0.109310D+01    0.100199D+01   -0.155944D-01
   0   115    0.275138D-02    0.109498D+01   -0.839976D+00   -0.204342D-01
   0   116    0.277286D-02    0.109645D+01   -0.138809D+01   -0.243982D-01
   0   117    0.280665D-02    0.109798D+01    0.176750D+01   -0.285022D-01
   0   118    0.283257D-02    0.109952D+01   -0.130091D+01   -0.325349D-01
   0   119    0.285469D-02    0.110091D+01   -0.112206D+00   -0.356818D-01
   0   120    0.287749D-02    0.110199D+01    0.823650D+00   -0.387862D-01
   0   121    0.288986D-02    0.110296D+01    0.144763D+01   -0.413122D-01
   0   122    0.294115D-02    0.110396D+01   -0.685420D-01   -0.436830D-01
   0   123    0.297767D-02    0.110457D+01   -0.163136D+01   -0.453201D-01
   0   124    0.299068D-02    0.110530D+01    0.603566D+00   -0.471920D-01
   0   125    0.296125D-02    0.110605D+01   -0.108556D+01   -0.492461D-01
   0   126    0.301161D-02    0.110680D+01   -0.946650D+00   -0.512945D-01
   0   127    0.308321D-02    0.110745D+01    0.147757D+01   -0.530041D-01
   0   128    0.307773D-02    0.110797D+01    0.812825D+00   -0.542322D-01
   0   129    0.307968D-02    0.110850D+01    0.331880D+00   -0.554426D-01
   0   130    0.318992D-02    0.110886D+01    0.253716D-01   -0.561927D-01
   0   131    0.317547D-02    0.110886D+01   -0.191886D+01   -0.561618D-01
   0   132    0.321501D-02    0.110867D+01   -0.195222D+01   -0.556365D-01
   0   133    0.328765D-02    0.110847D+01   -0.120226D+01   -0.553359D-01
   0   134    0.326994D-02    0.110854D+01    0.533906D+00   -0.553747D-01
   0   135    0.333070D-02    0.110872D+01   -0.163172D+01   -0.559946D-01
   0   136    0.335737D-02    0.110871D+01    0.194999D+01   -0.558680D-01
   0   137    0.344050D-02    0.110849D+01   -0.189877D+01   -0.555712D-01
   0   138    0.350702D-02    0.110858D+01   -0.193908D+01   -0.556751D-01
   0   139    0.354833D-02    0.110833D+01    0.220140D+01   -0.548693D-01
   0   140    0.352197D-02    0.110780D+01    0.161068D+01   -0.534015D-01
   0   141    0.361565D-02    0.110706D+01   -0.491600D+00   -0.518318D-01
   0   142    0.366958D-02    0.110665D+01   -0.176665D+01   -0.506197D-01
   0   143    0.370977D-02    0.110619D+01   -0.124941D+01   -0.493168D-01
   0   144    0.374828D-02    0.110555D+01    0.174553D+01   -0.477871D-01
   0   145    0.380829D-02    0.110541D+01    0.244043D-01   -0.474167D-01
   0   146    0.392575D-02    0.110452D+01   -0.260223D+01   -0.449933D-01
   0   147    0.397825D-02    0.110407D+01   -0.236095D+01   -0.441806D-01
   0   148    0.405488D-02    0.110351D+01    0.176680D+01   -0.426580D-01
   0   149    0.414430D-02    0.110250D+01   -0.179440D+01   -0.399019D-01
   0   150    0.422995D-02    0.110221D+01   -0.734853D+00   -0.391167D-01
   0   151    0.431217D-02    0.110131D+01   -0.129336D+01   -0.372614D-01
   0   152    0.435214D-02    0.110043D+01   -0.139584D+00   -0.345219D-01
   0   153    0.443627D-02    0.109927D+01   -0.779475D+00   -0.316349D-01
   0   154    0.452542D-02    0.109802D+01    0.207537D+01   -0.285167D-01
   0   155    0.459988D-02    0.109682D+01    0.404283D+00   -0.253528D-01
   0   156    0.476134D-02    0.109627D+01   -0.325452D+01   -0.237653D-01
   0   157    0.492826D-02    0.109525D+01   -0.316867D+00   -0.212347D-01
   0   158    0.499691D-02    0.109478D+01   -0.221687D+01   -0.196524D-01
   0   159    0.512630D-02    0.109360D+01   -0.104597D+01   -0.167782D-01
   0   160    0.523253D-02    0.109198D+01    0.225178D+01   -0.125419D-01
   0   161    0.535336D-02    0.109055D+01   -0.318136D+01   -0.900170D-02
   0   162    0.549532D-02    0.108936D+01    0.155797D+00   -0.552866D-02
   0   163    0.558776D-02    0.108850D+01    0.500044D+00   -0.342713D-02
   0   164    0.577965D-02    0.108713D+01   -0.883089D+00    0.484865D-03
   0   165    0.596685D-02    0.108612D+01    0.125168D+00    0.283417D-02
   0   166    0.624492D-02    0.108455D+01   -0.365751D+01    0.729132D-02
   0   167    0.653707D-02    0.108264D+01    0.128562D+01    0.125295D-01
   0   168    0.681572D-02    0.108122D+01   -0.691160D+00    0.155359D-01
   0   169    0.718010D-02    0.107909D+01   -0.915325D+00    0.216024D-01
   0   170    0.742585D-02    0.107700D+01   -0.357103D+01    0.272546D-01
   0   171    0.777773D-02    0.107457D+01   -0.944771D+00    0.335728D-01
   0   172    0.820423D-02    0.107356D+01   -0.256431D+01    0.363924D-01
   0   173    0.834359D-02    0.107212D+01    0.158698D+01    0.396187D-01
   0   174    0.884355D-02    0.107034D+01    0.897607D+00    0.446917D-01
   0   175    0.897915D-02    0.106951D+01    0.675213D+01    0.462925D-01
   0   176    0.958844D-02    0.106863D+01    0.868145D+00    0.489746D-01
   0   177    0.101610D-01    0.106710D+01    0.215509D+01    0.525558D-01
   0   178    0.107201D-01    0.106561D+01    0.215214D+01    0.557905D-01
   0   179    0.110958D-01    0.106464D+01   -0.355941D+00    0.582837D-01
   0   180    0.115712D-01    0.106359D+01    0.367248D+01    0.619448D-01
   0   181    0.121634D-01    0.106336D+01    0.532585D+01    0.618062D-01
   0   182    0.128410D-01    0.106283D+01   -0.429299D+01    0.633812D-01
   0   183    0.134116D-01    0.106387D+01    0.431570D+01    0.612357D-01
   0   184    0.142644D-01    0.106216D+01   -0.632484D+00    0.645804D-01
   0   185    0.155898D-01    0.106302D+01   -0.966530D+01    0.625826D-01
   0   186    0.163355D-01    0.106369D+01    0.757148D+01    0.606425D-01
   0   187    0.167119D-01    0.106511D+01   -0.112860D+02    0.574793D-01
   0   188    0.171330D-01    0.106700D+01    0.324077D+01    0.521025D-01
   0   189    0.177774D-01    0.106957D+01    0.743732D+01    0.468407D-01
   0   190    0.182399D-01    0.107116D+01    0.137672D+02    0.416930D-01
   0   191    0.190855D-01    0.107319D+01   -0.341189D+01    0.369725D-01
   0   192    0.196029D-01    0.107538D+01   -0.415702D+01    0.303223D-01
   0   193    0.201281D-01    0.107843D+01    0.100176D+02    0.222448D-01
   0   194    0.206190D-01    0.108032D+01   -0.621584D+01    0.173921D-01
   0   195    0.209456D-01    0.108374D+01    0.108700D+02    0.842051D-02
   0   196    0.218370D-01    0.108475D+01   -0.571020D+01    0.688034D-02
   0   197    0.219327D-01    0.108758D+01   -0.148444D+02   -0.182909D-02
   0   198    0.221242D-01    0.109106D+01    0.960995D+01   -0.956957D-02
   0   199    0.222632D-01    0.109204D+01   -0.694730D+01   -0.136732D-01
   0   200    0.225472D-01    0.109429D+01    0.546087D+01   -0.183599D-01
   0   201    0.230949D-01    0.109544D+01   -0.118366D+02   -0.206087D-01
   0   202    0.236350D-01    0.109724D+01   -0.908785D+01   -0.250062D-01
   0   203    0.236289D-01    0.109844D+01    0.338871D+01   -0.282491D-01
   0   204    0.244327D-01    0.109908D+01    0.124915D+02   -0.318207D-01
   0   205    0.250056D-01    0.110284D+01    0.326891D+01   -0.412737D-01
   0   206    0.248335D-01    0.110229D+01   -0.116541D+02   -0.397783D-01
   0   207    0.253910D-01    0.110492D+01    0.730778D+01   -0.455699D-01
   0   208    0.259594D-01    0.110631D+01    0.832833D+01   -0.495914D-01
   0   209    0.257792D-01    0.110682D+01    0.477109D+01   -0.504271D-01
   0   210    0.269267D-01    0.110889D+01   -0.441510D+01   -0.558117D-01
   0   211    0.270188D-01    0.110848D+01   -0.182957D+01   -0.565691D-01
   0   212    0.278189D-01    0.110787D+01   -0.231414D+02   -0.538361D-01
   0   213    0.278889D-01    0.110834D+01    0.107774D+02   -0.557965D-01
   0   214    0.287731D-01    0.110870D+01    0.301709D+01   -0.568683D-01
   0   215    0.292449D-01    0.111036D+01    0.195578D+02   -0.590834D-01
   0   216    0.301656D-01    0.110939D+01   -0.180337D+02   -0.564048D-01
   0   217    0.312241D-01    0.110743D+01   -0.204022D+02   -0.538680D-01
   0   218    0.322617D-01    0.110673D+01   -0.136801D+02   -0.514226D-01
   0   219    0.329608D-01    0.110507D+01   -0.189945D+02   -0.471797D-01
   0   220    0.337127D-01    0.110427D+01    0.143221D+02   -0.428998D-01
   0   221    0.354354D-01    0.110348D+01    0.525359D+01   -0.430483D-01
   0   222    0.360061D-01    0.110326D+01   -0.145410D+01   -0.410091D-01
   0   223    0.376421D-01    0.110002D+01   -0.194200D+02   -0.341693D-01
   0   224    0.401129D-01    0.109741D+01    0.158942D+02   -0.289384D-01
   0   225    0.420076D-01    0.109355D+01   -0.107924D+02   -0.156600D-01
   0   226    0.430389D-01    0.109200D+01   -0.174386D+02   -0.140849D-01
   0   227    0.465596D-01    0.108993D+01    0.107346D+02   -0.742119D-02
   0   228    0.502728D-01    0.108674D+01   -0.101484D+02    0.333983D-02
   0   229    0.534809D-01    0.108480D+01   -0.385739D+00    0.726308D-02
   0   230    0.569783D-01    0.108205D+01    0.280076D+02    0.143784D-01
   0   231    0.632754D-01    0.108145D+01    0.223566D+02    0.180019D-01
   0   232    0.697998D-01    0.108017D+01    0.346753D+02    0.193069D-01
   0   233    0.810331D-01    0.107513D+01   -0.408259D+02    0.328362D-01
   0   234    0.892091D-01    0.107614D+01    0.200129D+02    0.299413D-01
   0   235    0.987161D-01    0.107571D+01    0.356460D+02    0.320253D-01
   0   236    0.112317D+00    0.107403D+01   -0.628104D+01    0.354654D-01
   0   237    0.124962D+00    0.107813D+01   -0.307147D+02    0.261753D-01
   0   238    0.133892D+00    0.108467D+01    0.387513D+02    0.840305D-02
   0   239    0.149787D+00    0.108216D+01   -0.377164D+02    0.114525D-01
   0   240    0.163231D+00    0.108418D+01   -0.101470D+03    0.459987D-02
   0   241    0.170162D+00    0.109445D+01   -0.106250D+03   -0.153992D-01
   0   242    0.179368D+00    0.109480D+01    0.468050D+02   -0.222504D-01
   0   243    0.194669D+00    0.110116D+01    0.854227D+02   -0.369821D-01
   0   244    0.205346D+00    0.110923D+01   -0.376530D+02   -0.544021D-01
   0   245    0.225432D+00    0.111408D+01    0.292497D+02   -0.711699D-01
   0   246    0.244332D+00    0.111379D+01   -0.779201D+01   -0.710409D-01
   0   247    0.274267D+00    0.110299D+01    0.634927D+02   -0.417450D-01
   0   248    0.268726D+00    0.104267D+01    0.291432D+02    0.113949D+00
   0   249    0.149689D+00    0.844153D+00    0.188767D+03    0.313483D+00
   0   250    0.462024D-01    0.496262D+00    0.106705D+03    0.371284D+00
   0   251    0.117905D-01    0.245794D+00    0.247284D+02    0.384129D+00
   0   252    0.281232D-02    0.112045D+00    0.576170D+01    0.388339D+00
   0   253    0.641558D-03    0.487217D-01    0.162566D+01    0.389961D+00
   0   254    0.143287D-03    0.205898D-01    0.280995D+00    0.390620D+00
   0   255    0.307465D-04    0.854953D-02    0.497912D-01    0.390892D+00
   0   256    0.652043D-05    0.350850D-02    0.125976D-01    0.391004D+00
   0   257    0.135046D-05    0.142824D-02    0.374679D-02    0.391050D+00
   0   258    0.286660D-06    0.578102D-03    0.494648D-03    0.391068D+00
   0   259    0.590007D-07    0.233009D-03    0.153971D-03    0.391076D+00
   0   260    0.122709D-07    0.936201D-04    0.333803D-04    0.391079D+00
   0   261    0.248476D-08    0.375247D-04    0.556300D-05    0.391080D+00
   0   262    0.505692D-09    0.150125D-04    0.820105D-06    0.391081D+00
   0   263    0.100708D-09    0.599719D-05    0.268406D-06    0.391081D+00
   0   264    0.203183D-10    0.239291D-05    0.363712D-07    0.391081D+00
   0   265    0.410068D-11    0.953860D-06    0.838711D-08    0.391081D+00
   0   266    0.821151D-12    0.379927D-06    0.157624D-08    0.391081D+00
   0   267    0.163099D-12    0.151229D-06    0.433152D-09    0.391081D+00
   0   268    0.324132D-13    0.601651D-07    0.608019D-10    0.391081D+00
   0   269    0.641001D-14    0.239261D-07    0.109181D-10    0.391081D+00
   0   270    0.128591D-14    0.951165D-08    0.353787D-11    0.391081D+00
   0   271    0.252171D-15    0.378034D-08    0.492890D-12    0.391081D+00
   0   272    0.497293D-16    0.150219D-08    0.912821D-13    0.391081D+00
   0   273    0.990426D-17    0.596839D-09    0.248681D-13    0.391081D+00
   0   274    0.193390D-17    0.237109D-09    0.364339D-14    0.391081D+00
   0   275    0.381417D-18    0.941912D-10    0.636116D-15    0.391081D+00
   0   276    0.748978D-19    0.374157D-10    0.180144D-15    0.391081D+00
   0   277    0.147976D-19    0.148622D-10    0.425045D-16    0.391081D+00
   0   278    0.297201D-20    0.590346D-11    0.798233D-17    0.391081D+00
   0   279    0.576972D-21    0.234490D-11    0.136075D-17    0.391081D+00
   0   280    0.114259D-21    0.931401D-12    0.307916D-18    0.391081D+00
   0   281    0.222684D-22    0.369953D-12    0.366591D-19    0.391081D+00
   0   282    0.434706D-23    0.146945D-12    0.978316D-20    0.391081D+00
   0   283    0.875798D-24    0.583665D-13    0.202096D-20    0.391081D+00
   0   284    0.170284D-24    0.231831D-13    0.342820D-21    0.391081D+00
   0   285    0.336333D-25    0.920835D-14    0.597774D-22    0.391081D+00
   0   286    0.648278D-26    0.365759D-14    0.157318D-22    0.391081D+00
   0   287    0.127586D-26    0.145283D-14    0.253628D-23    0.391081D+00
   0   288    0.250392D-27    0.577086D-15    0.497283D-24    0.391081D+00
   0   289    0.490016D-28    0.229232D-15    0.835362D-25    0.391081D+00
   0   290    0.967314D-29    0.910587D-16    0.270896D-25    0.391081D+00
   0   291    0.187485D-29    0.361725D-16    0.342319D-26    0.391081D+00
   0   292    0.366660D-30    0.143697D-16    0.761496D-27    0.391081D+00
   0   293    0.722807D-31    0.570860D-17    0.114898D-27    0.391081D+00
   0   294    0.141957D-31    0.226790D-17    0.257615D-28    0.391081D+00
   0   295    0.279986D-32    0.901009D-18    0.629986D-29    0.391081D+00
   0   296    0.547263D-33    0.357968D-18    0.127078D-29    0.391081D+00
   0   297    0.106979D-33    0.142223D-18    0.210171D-30    0.391081D+00
   0   298    0.210128D-34    0.565065D-19    0.405672D-31    0.391081D+00
   0   299    0.403468D-35    0.224508D-19    0.110279D-31    0.391081D+00
   0   300    0.791590D-36    0.891998D-20    0.165633D-32    0.391081D+00
   0   301    0.154205D-36    0.354400D-20    0.312257D-33    0.391081D+00
   0   302    0.296619D-37    0.140804D-20    0.857919D-34    0.391081D+00
   0   303    0.573627D-38    0.559406D-21    0.152500D-34    0.391081D+00
   0   304    0.113813D-38    0.222241D-21    0.193939D-35    0.391081D+00
   0   305    0.227121D-39    0.882880D-22    0.402223D-36    0.391081D+00
   0   306    0.445050D-40    0.350717D-22    0.950827D-37    0.391081D+00
   0   307    0.856360D-41    0.139311D-22    0.194357D-37    0.391081D+00
   0   308    0.167874D-41    0.553330D-23    0.356328D-38    0.391081D+00
   0   309    0.332776D-42    0.219760D-23    0.581803D-39    0.391081D+00
   0   310    0.639188D-43    0.872722D-24    0.111274D-39    0.391081D+00
   0   311    0.124898D-43    0.346548D-24    0.255368D-40    0.391081D+00
   0   312    0.246373D-44    0.137597D-24    0.522534D-41    0.391081D+00
   0   313    0.481801D-45    0.546269D-25    0.104927D-41    0.391081D+00
   0   314    0.954369D-46    0.216849D-25    0.174813D-42    0.391081D+00
   0   315    0.182936D-46    0.860717D-26    0.369011D-43    0.391081D+00
   0   316    0.358459D-47    0.341596D-26    0.854513D-44    0.391081D+00
   0   317    0.697159D-48    0.135554D-26    0.190340D-44    0.391081D+00
   0   318    0.136306D-48    0.537851D-27    0.314170D-45    0.391081D+00
   0   319    0.265481D-49    0.213382D-27    0.691009D-46    0.391081D+00
   0   320    0.512157D-50    0.846452D-28    0.115207D-46    0.391081D+00
   0   321    0.100255D-50    0.335733D-28    0.259333D-47    0.391081D+00
   0   322    0.195626D-51    0.133148D-28    0.316718D-48    0.391081D+00
   0   323    0.380648D-52    0.527990D-29    0.930061D-49    0.391081D+00
   0   324    0.749395D-53    0.209347D-29    0.158644D-49    0.391081D+00
   0   325    0.148024D-53    0.829967D-30    0.340366D-50    0.391081D+00
   0   326    0.292504D-54    0.329010D-30    0.624620D-51    0.391081D+00
   0   327    0.578030D-55    0.130410D-30    0.128365D-51    0.391081D+00
   0   328    0.110873D-55    0.516861D-31    0.255200D-52    0.391081D+00
   0   329    0.212268D-56    0.204830D-31    0.430554D-53    0.391081D+00
   0   330    0.412509D-57    0.811666D-32    0.878139D-54    0.391081D+00
   0   331    0.802123D-58    0.321606D-32    0.185184D-54    0.391081D+00
   0   332    0.157876D-58    0.127420D-32    0.395097D-55    0.391081D+00
   0   333    0.312634D-59    0.504803D-33    0.652309D-56    0.391081D+00
   0   334    0.593956D-60    0.199975D-33    0.114483D-56    0.391081D+00
   0   335    0.117140D-60    0.792148D-34    0.290874D-57    0.391081D+00
   0   336    0.229541D-61    0.313771D-34    0.401159D-58    0.391081D+00
   0   337    0.446128D-62    0.124280D-34    0.127592D-58    0.391081D+00
   0   338    0.874297D-63    0.492232D-35    0.144711D-59    0.391081D+00
   0   339    0.171701D-63    0.194951D-35    0.288374D-60    0.391081D+00
   0   340    0.339280D-64    0.772097D-36    0.636248D-61    0.391081D+00
   0   341    0.665188D-65    0.305781D-36    0.177702D-61    0.391081D+00
   0   342    0.131942D-65    0.121100D-36    0.309967D-62    0.391081D+00
   0   343    0.252609D-66    0.479598D-37    0.651852D-63    0.391081D+00
   0   344    0.485015D-67    0.189939D-37    0.113197D-63    0.391081D+00
   0   345    0.959398D-68    0.752243D-38    0.160747D-64    0.391081D+00
   0   346    0.188563D-68    0.297928D-38    0.421711D-65    0.391081D+00
   0   347    0.367739D-69    0.118000D-38    0.710283D-66    0.391081D+00
   0   348    0.711724D-70    0.467377D-39    0.141717D-66    0.391081D+00
   0   349    0.139663D-70    0.185130D-39    0.344772D-67    0.391081D+00
   0   350    0.268117D-71    0.733352D-40    0.470789D-68    0.391081D+00
   0   351    0.521380D-72    0.290522D-40    0.924151D-69    0.391081D+00
   0   352    0.101362D-72    0.115102D-40    0.169689D-69    0.391081D+00
   0   353    0.198743D-73    0.456061D-41    0.351704D-70    0.391081D+00
   0   354    0.391532D-74    0.180720D-41    0.104774D-70    0.391081D+00
   0   355    0.767100D-75    0.716209D-42    0.210481D-71    0.391081D+00
   0   356    0.147702D-75    0.283873D-42    0.373255D-72    0.391081D+00
   0   357    0.293482D-76    0.112529D-42    0.789529D-73    0.391081D+00
   0   358    0.566722D-77    0.446133D-43    0.158306D-73    0.391081D+00
   0   359    0.109668D-77    0.176900D-43    0.289582D-74    0.391081D+00
   0   360    0.214983D-78    0.701552D-44    0.336755D-75    0.391081D+00
   0   361    0.412158D-79    0.278267D-44    0.831155D-76    0.391081D+00
   0   362    0.809209D-80    0.110393D-44    0.209542D-76    0.391081D+00
   0   363    0.159781D-80    0.438021D-45    0.267494D-77    0.391081D+00
   0   364    0.309494D-81    0.173832D-45    0.592621D-78    0.391081D+00
   0   365    0.610845D-82    0.690001D-46    0.162400D-78    0.391081D+00
   0   366    0.118061D-82    0.273940D-46    0.284221D-79    0.391081D+00
   0   367    0.233473D-83    0.108780D-46    0.369024D-80    0.391081D+00
   0   368    0.459013D-84    0.432050D-47    0.748916D-81    0.391081D+00
   0   369    0.897938D-85    0.171637D-47    0.238226D-81    0.391081D+00
   0   370    0.172889D-85    0.681995D-48    0.347045D-82    0.391081D+00
   0   371    0.339055D-86    0.271048D-48    0.743455D-83    0.391081D+00
   0   372    0.655774D-87    0.107748D-48    0.167620D-83    0.391081D+00
   0   373    0.128384D-87    0.428417D-49    0.212690D-84    0.391081D+00
   0   374    0.251031D-88    0.170382D-49    0.531568D-85    0.391081D+00
   0   375    0.499436D-89    0.677760D-50    0.746950D-86    0.391081D+00
   0   376    0.969815D-90    0.269667D-50    0.209099D-86    0.391081D+00
   0   377    0.192702D-90    0.107319D-50    0.285445D-87    0.391081D+00
   0   378    0.372384D-91    0.427190D-51    0.926793D-88    0.391081D+00
   0   379    0.723889D-92    0.170083D-51    0.117363D-88    0.391081D+00
   0   380    0.142097D-92    0.677328D-52    0.311699D-89    0.391081D+00
   0   381    0.274956D-93    0.269793D-52    0.558399D-90    0.391081D+00
   0   382    0.535384D-94    0.107487D-52    0.138259D-90    0.391081D+00
   0   383    0.104449D-94    0.428324D-53    0.164008D-91    0.391081D+00
   0   384    0.203798D-95    0.170718D-53    0.411680D-92    0.391081D+00
   0   385    0.399324D-96    0.680577D-54    0.841264D-93    0.391081D+00
   0   386    0.784485D-97    0.271370D-54    0.163966D-93    0.391081D+00
   0   387    0.150628D-97    0.108226D-54    0.294361D-94    0.391081D+00
   0   388    0.295092D-98    0.431702D-55    0.484454D-95    0.391081D+00
   0   389    0.572823D-99    0.172234D-55    0.126216D-95    0.391081D+00
   0   390    0.112472D-99    0.687282D-56    0.320545D-96    0.391081D+00
   0   391    0.217520-100    0.274301D-56    0.539551D-97    0.391081D+00
   0   392    0.437107-101    0.109495D-56    0.843896D-98    0.391081D+00
   0   393    0.859543-102    0.437155D-57    0.198841D-98    0.391081D+00
   0   394    0.171739-102    0.174559D-57    0.310446D-99    0.391081D+00
   0   395    0.326926-103    0.697085D-58    0.609224-100    0.391081D+00
   0   396    0.633620-104    0.278289D-58    0.104926-100    0.391081D+00
   0   397    0.123168-104    0.110794D-58    0.329222-101    0.391081D+00