variables =  "IG"  "JG"  "PHI"  "Temp."  "Latent_heat"  "mm"
ZONE  I=  401  J=  101
   0     0    0.100000D+01    0.965543D+00    0.000000D+00    0.233462D+00
   0     1    0.100000D+01    0.965543D+00    0.000000D+00    0.233462D+00
   0     2    0.100000D+01    0.966000D+00    0.000000D+00    0.232973D+00
   0     3    0.100000D+01    0.966912D+00    0.000000D+00    0.231993D+00
   0     4    0.100000D+01    0.968271D+00    0.000000D+00    0.230514D+00
   0     5    0.100000D+01    0.970069D+00    0.000000D+00    0.228529D+00
   0     6    0.100000D+01    0.972292D+00    0.000000D+00    0.226024D+00
   0     7    0.100000D+01    0.974924D+00    0.000000D+00    0.222986D+00
   0     8    0.100000D+01    0.977949D+00    0.000000D+00    0.219396D+00
   0     9    0.100000D+01    0.981343D+00    0.000000D+00    0.215236D+00
   0    10    0.100000D+01    0.985083D+00    0.000000D+00    0.210485D+00
   0    11    0.100000D+01    0.989145D+00    0.000000D+00    0.205122D+00
   0    12    0.100000D+01    0.993498D+00    0.000000D+00    0.199126D+00
   0    13    0.100000D+01    0.998114D+00    0.000000D+00    0.192477D+00
   0    14    0.100000D+01    0.100296D+01    0.000000D+00    0.185160D+00
   0    15    0.100000D+01    0.100801D+01    0.000000D+00    0.177162D+00
   0    16    0.100000D+01    0.101322D+01    0.000000D+00    0.168482D+00
   0    17    0.100000D+01    0.101856D+01    0.000000D+00    0.159127D+00
   0    18    0.100000D+01    0.102399D+01    0.000000D+00    0.149115D+00
   0    19    0.100000D+01    0.102948D+01    0.000000D+00    0.138484D+00
   0    20    0.100000D+01    0.103500D+01    0.000000D+00    0.127286D+00
   0    21    0.100000D+01    0.104050D+01   -0.145853D-10    0.115596D+00
   0    22    0.100000D+01    0.104596D+01   -0.204194D-09    0.103508D+00
   0    23    0.100000D+01    0.105134D+01   -0.103556D-08    0.911335D-01
   0    24    0.100000D+01    0.105660D+01   -0.291706D-08    0.786019D-01
   0    25    0.100000D+01    0.106172D+01   -0.833403D-07    0.660537D-01
   0    26    0.100000D+01    0.106667D+01   -0.134039D-07    0.536357D-01
   0    27    0.100000D+01    0.107141D+01   -0.580655D-06    0.414939D-01
   0    28    0.100000D+01    0.107593D+01    0.616459D-04    0.297674D-01
   0    29    0.999999D+00    0.108020D+01    0.632727D-04    0.185819D-01
   0    30    0.999992D+00    0.108419D+01    0.525150D-02    0.804701D-02
   0    31    0.999941D+00    0.108789D+01   -0.404256D-02   -0.173746D-02
   0    32    0.999549D+00    0.109126D+01   -0.818481D-01   -0.106525D-01
   0    33    0.996534D+00    0.109430D+01    0.167258D+00   -0.185944D-01
   0    34    0.973934D+00    0.109689D+01    0.293385D+01   -0.253731D-01
   0    35    0.820619D+00    0.109820D+01    0.499233D+02   -0.286389D-01
   0    36    0.151965D+00    0.110118D+01    0.516685D+02   -0.376180D-01
   0    37    0.204864D-01    0.110189D+01   -0.317557D+01   -0.382749D-01
   0    38    0.279165D-02    0.110186D+01   -0.101114D+01   -0.383329D-01
   0    39    0.432314D-03    0.110166D+01    0.130007D+00   -0.378725D-01
   0    40    0.118073D-03    0.110098D+01    0.438669D-01   -0.361170D-01
   0    41    0.756424D-04    0.109982D+01    0.454016D-01   -0.330934D-01
   0    42    0.735454D-04    0.109827D+01   -0.237139D-01   -0.290640D-01
   0    43    0.855279D-04    0.109648D+01   -0.134934D-01   -0.243701D-01
   0    44    0.112727D-03    0.109465D+01   -0.742287D-01   -0.195861D-01
   0    45    0.177622D-03    0.109324D+01   -0.579452D-01   -0.158605D-01
   0    46    0.307103D-03    0.109284D+01    0.964531D-01   -0.148002D-01
   0    47    0.450591D-03    0.109379D+01    0.148362D+00   -0.173406D-01
   0    48    0.532764D-03    0.109587D+01   -0.282680D-01   -0.227869D-01
   0    49    0.541106D-03    0.109816D+01    0.280567D+00   -0.287635D-01
   0    50    0.523758D-03    0.110038D+01    0.161019D+00   -0.345699D-01
   0    51    0.501726D-03    0.110214D+01    0.398946D-01   -0.391074D-01
   0    52    0.488775D-03    0.110354D+01   -0.592671D-01   -0.426927D-01
   0    53    0.472301D-03    0.110449D+01   -0.104557D+00   -0.451698D-01
   0    54    0.460154D-03    0.110511D+01    0.216936D+00   -0.467551D-01
   0    55    0.459913D-03    0.110562D+01   -0.685614D-01   -0.480472D-01
   0    56    0.456959D-03    0.110603D+01   -0.163141D+00   -0.491073D-01
   0    57    0.459929D-03    0.110620D+01   -0.266573D+00   -0.495615D-01
   0    58    0.454572D-03    0.110607D+01    0.293873D-01   -0.492458D-01
   0    59    0.453918D-03    0.110592D+01   -0.215723D+00   -0.488215D-01
   0    60    0.450626D-03    0.110571D+01   -0.112135D+00   -0.482760D-01
   0    61    0.461356D-03    0.110552D+01    0.776792D-01   -0.477974D-01
   0    62    0.460860D-03    0.110530D+01    0.205298D+00   -0.472554D-01
   0    63    0.465492D-03    0.110501D+01   -0.311326D-01   -0.464926D-01
   0    64    0.476399D-03    0.110474D+01   -0.166522D+00   -0.458261D-01
   0    65    0.486365D-03    0.110450D+01   -0.650455D-01   -0.452121D-01
   0    66    0.490370D-03    0.110422D+01    0.135476D+00   -0.444923D-01
   0    67    0.494099D-03    0.110382D+01    0.683865D-01   -0.434384D-01
   0    68    0.493465D-03    0.110334D+01   -0.305632D+00   -0.422303D-01
   0    69    0.497994D-03    0.110295D+01   -0.163846D+00   -0.412216D-01
   0    70    0.510200D-03    0.110243D+01   -0.149716D+00   -0.398538D-01
   0    71    0.515516D-03    0.110190D+01   -0.205158D+00   -0.385101D-01
   0    72    0.524918D-03    0.110132D+01   -0.426674D+00   -0.370240D-01
   0    73    0.525655D-03    0.110079D+01    0.715294D-01   -0.356201D-01
   0    74    0.536827D-03    0.110034D+01    0.101688D+00   -0.344384D-01
   0    75    0.538339D-03    0.109986D+01    0.145602D+00   -0.331444D-01
   0    76    0.549638D-03    0.109927D+01   -0.197992D-01   -0.317026D-01
   0    77    0.565174D-03    0.109867D+01    0.179253D+00   -0.300982D-01
   0    78    0.580129D-03    0.109796D+01    0.123985D+00   -0.282523D-01
   0    79    0.584615D-03    0.109731D+01    0.282964D+00   -0.264999D-01
   0    80    0.581084D-03    0.109670D+01   -0.257266D+00   -0.248796D-01
   0    81    0.600321D-03    0.109615D+01    0.112465D+00   -0.234713D-01
   0    82    0.603581D-03    0.109548D+01    0.140656D+00   -0.217201D-01
   0    83    0.607715D-03    0.109477D+01   -0.127867D+00   -0.198326D-01
   0    84    0.627373D-03    0.109411D+01   -0.325156D+00   -0.181292D-01
   0    85    0.630162D-03    0.109334D+01   -0.165704D+00   -0.160750D-01
   0    86    0.656980D-03    0.109266D+01    0.229058D+00   -0.142677D-01
   0    87    0.654375D-03    0.109190D+01    0.285696D-01   -0.123032D-01
   0    88    0.669038D-03    0.109122D+01   -0.839201D-01   -0.104737D-01
   0    89    0.677560D-03    0.109048D+01    0.388650D+00   -0.854081D-02
   0    90    0.698706D-03    0.108985D+01   -0.271425D+00   -0.688183D-02
   0    91    0.716570D-03    0.108903D+01   -0.245936D+00   -0.476661D-02
   0    92    0.726160D-03    0.108826D+01   -0.363399D+00   -0.269048D-02
   0    93    0.745908D-03    0.108752D+01   -0.480096D+00   -0.747760D-03
   0    94    0.767420D-03    0.108672D+01   -0.305815D+00    0.133499D-02
   0    95    0.783304D-03    0.108598D+01   -0.445677D+00    0.341066D-02
   0    96    0.788054D-03    0.108521D+01   -0.366948D+00    0.539871D-02
   0    97    0.813324D-03    0.108435D+01    0.238693D+00    0.767442D-02
   0    98    0.830051D-03    0.108349D+01    0.278272D+00    0.990490D-02
   0    99    0.840838D-03    0.108251D+01   -0.296779D+00    0.125436D-01
   0   100    0.847532D-03    0.108169D+01    0.533872D+00    0.146451D-01
   0   101    0.881057D-03    0.108096D+01   -0.322791D+00    0.165856D-01
   0   102    0.896809D-03    0.108000D+01    0.353995D-01    0.191719D-01
   0   103    0.928779D-03    0.107911D+01    0.174976D+00    0.214574D-01
   0   104    0.985116D-03    0.107818D+01    0.422931D+00    0.239252D-01
   0   105    0.100464D-02    0.107712D+01   -0.424661D+00    0.266285D-01
   0   106    0.101116D-02    0.107619D+01    0.365296D+00    0.291691D-01
   0   107    0.105304D-02    0.107527D+01    0.325616D+00    0.314471D-01
   0   108    0.109517D-02    0.107450D+01    0.465974D+00    0.335313D-01
   0   109    0.110629D-02    0.107364D+01   -0.589860D+00    0.357782D-01
   0   110    0.113658D-02    0.107278D+01    0.474993D+00    0.380214D-01
   0   111    0.114653D-02    0.107189D+01    0.349162D+00    0.403189D-01
   0   112    0.121717D-02    0.107085D+01    0.383281D+00    0.429319D-01
   0   113    0.124831D-02    0.106987D+01   -0.312607D+00    0.454942D-01
   0   114    0.129539D-02    0.106912D+01   -0.819605D+00    0.474336D-01
   0   115    0.133649D-02    0.106811D+01    0.365790D+00    0.500332D-01
   0   116    0.138812D-02    0.106724D+01   -0.845912D+00    0.522296D-01
   0   117    0.144838D-02    0.106650D+01    0.296718D+00    0.541301D-01
   0   118    0.152211D-02    0.106556D+01   -0.496636D+00    0.565010D-01
   0   119    0.162976D-02    0.106467D+01    0.815133D+00    0.587525D-01
   0   120    0.173027D-02    0.106387D+01   -0.604424D+00    0.607821D-01
   0   121    0.179055D-02    0.106346D+01    0.136030D-01    0.615972D-01
   0   122    0.183823D-02    0.106300D+01    0.279174D-01    0.627813D-01
   0   123    0.188371D-02    0.106330D+01   -0.492536D+00    0.621655D-01
   0   124    0.193869D-02    0.106369D+01    0.483554D+00    0.611149D-01
   0   125    0.196330D-02    0.106437D+01   -0.923284D+00    0.595163D-01
   0   126    0.204889D-02    0.106518D+01    0.348107D+00    0.574084D-01
   0   127    0.214300D-02    0.106609D+01    0.731624D+00    0.550647D-01
   0   128    0.223461D-02    0.106718D+01    0.650922D-01    0.522965D-01
   0   129    0.233088D-02    0.106844D+01   -0.169449D+01    0.489274D-01
   0   130    0.237688D-02    0.106992D+01    0.102872D+01    0.451920D-01
   0   131    0.237735D-02    0.107168D+01   -0.748787D+00    0.408841D-01
   0   132    0.240909D-02    0.107309D+01   -0.932857D+00    0.372812D-01
   0   133    0.242743D-02    0.107499D+01    0.105271D+01    0.322475D-01
   0   134    0.250894D-02    0.107760D+01    0.169105D+00    0.254490D-01
   0   135    0.256527D-02    0.107971D+01   -0.144989D+01    0.197858D-01
   0   136    0.260622D-02    0.108169D+01    0.149840D+00    0.145784D-01
   0   137    0.274274D-02    0.108368D+01   -0.227170D+01    0.910398D-02
   0   138    0.272542D-02    0.108531D+01   -0.965792D+00    0.495760D-02
   0   139    0.262616D-02    0.108684D+01   -0.524825D+00    0.996614D-03
   0   140    0.267699D-02    0.108848D+01    0.549998D+00   -0.336517D-02
   0   141    0.272536D-02    0.109044D+01    0.758471D+00   -0.857093D-02
   0   142    0.276662D-02    0.109214D+01   -0.130928D+01   -0.129253D-01
   0   143    0.272159D-02    0.109345D+01   -0.794468D+00   -0.162741D-01
   0   144    0.277078D-02    0.109463D+01    0.806472D+00   -0.197151D-01
   0   145    0.281365D-02    0.109636D+01   -0.109087D+01   -0.241889D-01
   0   146    0.284766D-02    0.109785D+01    0.100463D+01   -0.281017D-01
   0   147    0.284412D-02    0.109935D+01    0.876092D+00   -0.318528D-01
   0   148    0.286098D-02    0.110075D+01   -0.787392D+00   -0.353941D-01
   0   149    0.282739D-02    0.110212D+01   -0.502586D+00   -0.390004D-01
   0   150    0.284697D-02    0.110313D+01    0.908482D+00   -0.419000D-01
   0   151    0.286534D-02    0.110408D+01    0.358691D-01   -0.440335D-01
   0   152    0.294572D-02    0.110467D+01   -0.946627D+00   -0.458861D-01
   0   153    0.294229D-02    0.110542D+01    0.162016D+01   -0.476895D-01
   0   154    0.295701D-02    0.110592D+01    0.116533D+01   -0.487879D-01
   0   155    0.298669D-02    0.110575D+01   -0.731486D+00   -0.483593D-01
   0   156    0.296478D-02    0.110605D+01   -0.174397D+01   -0.490873D-01
   0   157    0.305584D-02    0.110670D+01   -0.133203D+01   -0.509678D-01
   0   158    0.308951D-02    0.110739D+01    0.112969D+01   -0.527982D-01
   0   159    0.306306D-02    0.110816D+01    0.174136D+01   -0.544676D-01
   0   160    0.310241D-02    0.110840D+01    0.179992D+01   -0.549759D-01
   0   161    0.312329D-02    0.110812D+01    0.194943D+01   -0.546627D-01
   0   162    0.320128D-02    0.110836D+01    0.173717D+01   -0.550870D-01
   0   163    0.322017D-02    0.110823D+01    0.105552D+01   -0.548932D-01
   0   164    0.326801D-02    0.110843D+01    0.798415D+00   -0.552881D-01
   0   165    0.332818D-02    0.110828D+01   -0.503587D+00   -0.550598D-01
   0   166    0.337610D-02    0.110849D+01   -0.115276D+01   -0.555940D-01
   0   167    0.344086D-02    0.110843D+01   -0.263358D+01   -0.553618D-01
   0   168    0.344191D-02    0.110808D+01   -0.181783D+01   -0.543279D-01
   0   169    0.345179D-02    0.110801D+01    0.257033D+00   -0.541740D-01
   0   170    0.350065D-02    0.110782D+01   -0.242033D-01   -0.535708D-01
   0   171    0.353008D-02    0.110774D+01    0.287018D+01   -0.533536D-01
   0   172    0.355927D-02    0.110694D+01    0.130235D+01   -0.515918D-01
   0   173    0.359766D-02    0.110615D+01   -0.312358D+00   -0.492815D-01
   0   174    0.377783D-02    0.110601D+01   -0.258726D+01   -0.489636D-01
   0   175    0.382653D-02    0.110587D+01    0.209297D+01   -0.489132D-01
   0   176    0.385470D-02    0.110521D+01   -0.256914D+01   -0.467699D-01
   0   177    0.387911D-02    0.110484D+01   -0.109646D+01   -0.461763D-01
   0   178    0.392647D-02    0.110409D+01   -0.201524D+01   -0.441363D-01
   0   179    0.402585D-02    0.110324D+01   -0.737145D-01   -0.421126D-01
   0   180    0.418376D-02    0.110257D+01   -0.198204D+01   -0.404436D-01
   0   181    0.415945D-02    0.110174D+01    0.319050D+00   -0.380548D-01
   0   182    0.422055D-02    0.110062D+01   -0.213863D+01   -0.352782D-01
   0   183    0.437537D-02    0.109960D+01    0.251116D+01   -0.326762D-01
   0   184    0.441583D-02    0.109893D+01   -0.121348D+01   -0.305078D-01
   0   185    0.458760D-02    0.109835D+01   -0.126577D+01   -0.290806D-01
   0   186    0.466946D-02    0.109746D+01   -0.163295D+01   -0.272656D-01
   0   187    0.476743D-02    0.109649D+01    0.260904D+01   -0.243846D-01
   0   188    0.491154D-02    0.109522D+01   -0.135101D+01   -0.207307D-01
   0   189    0.503236D-02    0.109370D+01   -0.213797D+01   -0.171442D-01
   0   190    0.511994D-02    0.109225D+01   -0.301566D+01   -0.131485D-01
   0   191    0.525762D-02    0.109185D+01    0.313673D+01   -0.119774D-01
   0   192    0.542304D-02    0.109080D+01   -0.356242D+01   -0.943022D-02
   0   193    0.552826D-02    0.108895D+01   -0.173176D+01   -0.442150D-02
   0   194    0.560409D-02    0.108747D+01   -0.154546D+01   -0.553754D-03
   0   195    0.584960D-02    0.108669D+01   -0.155600D+01    0.164442D-02
   0   196    0.607328D-02    0.108542D+01   -0.225679D+01    0.472033D-02
   0   197    0.632364D-02    0.108449D+01    0.166760D+01    0.740927D-02
   0   198    0.649393D-02    0.108321D+01   -0.130493D+01    0.110840D-01
   0   199    0.670069D-02    0.108195D+01   -0.496834D+00    0.140331D-01
   0   200    0.699418D-02    0.107967D+01    0.217290D+01    0.196182D-01
   0   201    0.719341D-02    0.107847D+01   -0.194486D+01    0.231557D-01
   0   202    0.752112D-02    0.107649D+01   -0.400068D+01    0.277749D-01
   0   203    0.789909D-02    0.107518D+01   -0.255096D+01    0.315284D-01
   0   204    0.832734D-02    0.107266D+01    0.109812D+01    0.382763D-01
   0   205    0.887658D-02    0.107091D+01    0.549508D+00    0.432529D-01
   0   206    0.932831D-02    0.106906D+01   -0.240909D+01    0.474643D-01
   0   207    0.946297D-02    0.106856D+01    0.238287D+00    0.492353D-01
   0   208    0.100398D-01    0.106721D+01   -0.317813D+01    0.522439D-01
   0   209    0.104031D-01    0.106671D+01   -0.353035D+01    0.533569D-01
   0   210    0.109753D-01    0.106610D+01   -0.435577D+01    0.553683D-01
   0   211    0.114391D-01    0.106496D+01    0.526576D+01    0.576577D-01
   0   212    0.120532D-01    0.106434D+01    0.523732D+01    0.595883D-01
   0   213    0.129227D-01    0.106375D+01   -0.473315D+01    0.609491D-01
   0   214    0.137227D-01    0.106302D+01   -0.874931D+01    0.631881D-01
   0   215    0.145337D-01    0.106314D+01   -0.238315D+01    0.625268D-01
   0   216    0.153033D-01    0.106384D+01    0.423851D+01    0.606632D-01
   0   217    0.160823D-01    0.106487D+01   -0.837414D+01    0.588208D-01
   0   218    0.172158D-01    0.106583D+01   -0.464823D+01    0.558037D-01
   0   219    0.180459D-01    0.106868D+01    0.113275D+02    0.479148D-01
   0   220    0.187405D-01    0.107070D+01   -0.129666D+02    0.426021D-01
   0   221    0.187156D-01    0.107175D+01    0.321163D+01    0.403140D-01
   0   222    0.191595D-01    0.107359D+01   -0.135477D+02    0.350265D-01
   0   223    0.194274D-01    0.107689D+01    0.495877D+01    0.282516D-01
   0   224    0.200567D-01    0.107838D+01   -0.115963D+02    0.223312D-01
   0   225    0.206391D-01    0.107987D+01   -0.222748D+01    0.184537D-01
   0   226    0.209188D-01    0.108127D+01   -0.194951D+01    0.149568D-01
   0   227    0.212933D-01    0.108601D+01    0.127405D+02    0.374024D-02
   0   228    0.219035D-01    0.108703D+01   -0.894240D+01    0.444069D-03
   0   229    0.227150D-01    0.108965D+01    0.551324D+01   -0.668721D-02
   0   230    0.226726D-01    0.109256D+01    0.112489D+02   -0.141290D-01
   0   231    0.229421D-01    0.109441D+01    0.131964D+02   -0.200667D-01
   0   232    0.233126D-01    0.109812D+01    0.803220D+01   -0.284609D-01
   0   233    0.235427D-01    0.109909D+01    0.509685D+01   -0.316000D-01
   0   234    0.240425D-01    0.110086D+01    0.131620D+02   -0.373132D-01
   0   235    0.249097D-01    0.110308D+01   -0.155676D+02   -0.424266D-01
   0   236    0.254068D-01    0.110438D+01   -0.111414D+02   -0.446409D-01
   0   237    0.257654D-01    0.110644D+01    0.332593D+01   -0.491969D-01
   0   238    0.256818D-01    0.110607D+01    0.821542D+01   -0.501893D-01
   0   239    0.264705D-01    0.110786D+01   -0.191900D+02   -0.545571D-01
   0   240    0.268888D-01    0.110645D+01   -0.927758D+01   -0.514118D-01
   0   241    0.273729D-01    0.110784D+01   -0.162072D+02   -0.545386D-01
   0   242    0.276404D-01    0.110740D+01    0.851235D+01   -0.539423D-01
   0   243    0.279495D-01    0.110934D+01   -0.745103D+01   -0.589733D-01
   0   244    0.290945D-01    0.110966D+01    0.902137D+01   -0.589969D-01
   0   245    0.290930D-01    0.110764D+01    0.106011D+02   -0.529060D-01
   0   246    0.297952D-01    0.110808D+01   -0.120934D+02   -0.538471D-01
   0   247    0.304787D-01    0.110647D+01    0.916638D+01   -0.509880D-01
   0   248    0.314533D-01    0.110697D+01   -0.142475D+02   -0.515894D-01
   0   249    0.320343D-01    0.110589D+01   -0.609869D+01   -0.493232D-01
   0   250    0.328826D-01    0.110478D+01   -0.178568D+02   -0.459878D-01
   0   251    0.335928D-01    0.110412D+01    0.141068D+02   -0.444977D-01
   0   252    0.356856D-01    0.110197D+01   -0.151291D+02   -0.373320D-01
   0   253    0.370909D-01    0.110038D+01    0.654366D+01   -0.326433D-01
   0   254    0.384167D-01    0.109905D+01   -0.903545D+01   -0.313192D-01
   0   255    0.406740D-01    0.109663D+01    0.227034D+02   -0.242494D-01
   0   256    0.426074D-01    0.109373D+01   -0.125328D+02   -0.187624D-01
   0   257    0.459770D-01    0.109235D+01   -0.139401D+02   -0.118688D-01
   0   258    0.496325D-01    0.108885D+01    0.141734D+02   -0.307055D-02
   0   259    0.529415D-01    0.108417D+01   -0.165426D+02    0.845721D-02
   0   260    0.575916D-01    0.108381D+01    0.146982D+02    0.105630D-01
   0   261    0.612982D-01    0.108077D+01   -0.350349D+02    0.180696D-01
   0   262    0.655043D-01    0.107876D+01    0.504785D+01    0.249682D-01
   0   263    0.714361D-01    0.107557D+01   -0.341355D+02    0.297740D-01
   0   264    0.784250D-01    0.107471D+01   -0.585795D+02    0.357748D-01
   0   265    0.854281D-01    0.107343D+01    0.298972D+02    0.373128D-01
   0   266    0.929362D-01    0.107768D+01    0.334793D+02    0.249150D-01
   0   267    0.100724D+00    0.107485D+01    0.151996D+02    0.315480D-01
   0   268    0.110359D+00    0.107738D+01   -0.658160D+02    0.267336D-01
   0   269    0.126396D+00    0.107694D+01   -0.480875D+02    0.301381D-01
   0   270    0.141659D+00    0.108218D+01   -0.484984D+02    0.168550D-01
   0   271    0.156518D+00    0.108405D+01   -0.139551D+01    0.111300D-01
   0   272    0.164208D+00    0.109043D+01   -0.393841D+02   -0.923672D-02
   0   273    0.176762D+00    0.109753D+01   -0.417464D+02   -0.262605D-01
   0   274    0.191016D+00    0.110009D+01   -0.922608D+02   -0.316887D-01
   0   275    0.207277D+00    0.111024D+01   -0.676545D+02   -0.566887D-01
   0   276    0.222879D+00    0.111535D+01   -0.124457D+03   -0.694524D-01
   0   277    0.251633D+00    0.111128D+01    0.373062D+02   -0.575366D-01
   0   278    0.277059D+00    0.110133D+01   -0.523455D+02   -0.354728D-01
   0   279    0.271549D+00    0.105099D+01    0.117334D+02    0.912625D-01
   0   280    0.159146D+00    0.863191D+00    0.286303D+03    0.306270D+00
   0   281    0.504422D-01    0.519700D+00    0.105454D+03    0.369503D+00
   0   282    0.130770D-01    0.261605D+00    0.211315D+02    0.383545D+00
   0   283    0.320698D-02    0.120329D+00    0.509630D+01    0.388111D+00
   0   284    0.724303D-03    0.526989D-01    0.156449D+01    0.389864D+00
   0   285    0.160250D-03    0.224215D-01    0.308864D+00    0.390578D+00
   0   286    0.348375D-04    0.935495D-02    0.706520D-01    0.390874D+00
   0   287    0.757540D-05    0.385526D-02    0.176024D-01    0.390996D+00
   0   288    0.159612D-05    0.157496D-02    0.291341D-02    0.391047D+00
   0   289    0.338452D-06    0.639358D-03    0.709433D-03    0.391067D+00
   0   290    0.689856D-07    0.258318D-03    0.131685D-03    0.391076D+00
   0   291    0.140668D-07    0.103986D-03    0.377792D-04    0.391079D+00
   0   292    0.287513D-08    0.417393D-04    0.708994D-05    0.391080D+00
   0   293    0.586640D-09    0.167150D-04    0.107609D-05    0.391081D+00
   0   294    0.116900D-09    0.668124D-05    0.195820D-06    0.391081D+00
   0   295    0.237128D-10    0.266654D-05    0.623034D-07    0.391081D+00
   0   296    0.481441D-11    0.106292D-05    0.132204D-07    0.391081D+00
   0   297    0.948453D-12    0.423268D-06    0.205790D-08    0.391081D+00
   0   298    0.191333D-12    0.168409D-06    0.470854D-09    0.391081D+00
   0   299    0.381988D-13    0.669593D-07    0.937358D-10    0.391081D+00
   0   300    0.767000D-14    0.266073D-07    0.203081D-10    0.391081D+00
   0   301    0.151391D-14    0.105675D-07    0.378714D-11    0.391081D+00
   0   302    0.300270D-15    0.419522D-08    0.728707D-12    0.391081D+00
   0   303    0.597921D-16    0.166483D-08    0.107052D-12    0.391081D+00
   0   304    0.119851D-16    0.660442D-09    0.236178D-13    0.391081D+00
   0   305    0.235125D-17    0.261918D-09    0.551362D-14    0.391081D+00
   0   306    0.467031D-18    0.103843D-09    0.933328D-15    0.391081D+00
   0   307    0.924191D-19    0.411605D-10    0.259395D-15    0.391081D+00
   0   308    0.183855D-19    0.163113D-10    0.303168D-16    0.391081D+00
   0   309    0.366952D-20    0.646274D-11    0.956461D-17    0.391081D+00
   0   310    0.725723D-21    0.256021D-11    0.180023D-17    0.391081D+00
   0   311    0.142345D-21    0.101410D-11    0.299805D-18    0.391081D+00
   0   312    0.279333D-22    0.401645D-12    0.710247D-19    0.391081D+00
   0   313    0.551888D-23    0.159066D-12    0.111531D-19    0.391081D+00
   0   314    0.105714D-23    0.629936D-13    0.321272D-20    0.391081D+00
   0   315    0.210692D-24    0.249467D-13    0.545691D-21    0.391081D+00
   0   316    0.411223D-25    0.987952D-14    0.109383D-21    0.391081D+00
   0   317    0.794476D-26    0.391270D-14    0.229770D-22    0.391081D+00
   0   318    0.156121D-26    0.154968D-14    0.441186D-23    0.391081D+00
   0   319    0.302972D-27    0.613821D-15    0.737294D-24    0.391081D+00
   0   320    0.588998D-28    0.243153D-15    0.168611D-24    0.391081D+00
   0   321    0.116156D-28    0.963300D-16    0.300343D-25    0.391081D+00
   0   322    0.229381D-29    0.381673D-16    0.375031D-26    0.391081D+00
   0   323    0.444129D-30    0.151242D-16    0.833209D-27    0.391081D+00
   0   324    0.873464D-31    0.599386D-17    0.246849D-27    0.391081D+00
   0   325    0.169415D-31    0.237572D-17    0.384645D-28    0.391081D+00
   0   326    0.337339D-32    0.941759D-18    0.695775D-29    0.391081D+00
   0   327    0.672575D-33    0.373371D-18    0.184004D-29    0.391081D+00
   0   328    0.130655D-33    0.148047D-18    0.231908D-30    0.391081D+00
   0   329    0.257781D-34    0.587101D-19    0.691375D-31    0.391081D+00
   0   330    0.496817D-35    0.232853D-19    0.940275D-32    0.391081D+00
   0   331    0.969752D-36    0.923651D-20    0.161875D-32    0.391081D+00
   0   332    0.190999D-36    0.366427D-20    0.340202D-33    0.391081D+00
   0   333    0.372644D-37    0.145386D-20    0.595150D-34    0.391081D+00
   0   334    0.728102D-38    0.576909D-21    0.191651D-34    0.391081D+00
   0   335    0.142102D-38    0.228952D-21    0.301059D-35    0.391081D+00
   0   336    0.281491D-39    0.908722D-22    0.561075D-36    0.391081D+00
   0   337    0.543605D-40    0.360717D-22    0.159669D-36    0.391081D+00
   0   338    0.104397D-40    0.143202D-22    0.246824D-37    0.391081D+00
   0   339    0.205216D-41    0.568561D-23    0.557450D-38    0.391081D+00
   0   340    0.394066D-42    0.225761D-23    0.947293D-39    0.391081D+00
   0   341    0.763980D-43    0.896528D-24    0.175729D-39    0.391081D+00
   0   342    0.150928D-43    0.356057D-24    0.360549D-40    0.391081D+00
   0   343    0.295940D-44    0.141421D-24    0.790133D-41    0.391081D+00
   0   344    0.581881D-45    0.561753D-25    0.108313D-41    0.391081D+00
   0   345    0.111576D-45    0.223158D-25    0.218078D-42    0.391081D+00
   0   346    0.221411D-46    0.886572D-26    0.378978D-43    0.391081D+00
   0   347    0.438260D-47    0.352247D-26    0.108381D-43    0.391081D+00
   0   348    0.833683D-48    0.139962D-26    0.160411D-44    0.391081D+00
   0   349    0.164129D-48    0.556165D-27    0.320127D-45    0.391081D+00
   0   350    0.318674D-49    0.221016D-27    0.645096D-46    0.391081D+00
   0   351    0.622693D-50    0.878350D-28    0.111099D-46    0.391081D+00
   0   352    0.120759D-50    0.349088D-28    0.195799D-47    0.391081D+00
   0   353    0.234746D-51    0.138747D-28    0.646921D-48    0.391081D+00
   0   354    0.456478D-52    0.551485D-29    0.959296D-49    0.391081D+00
   0   355    0.887520D-53    0.219210D-29    0.165510D-49    0.391081D+00
   0   356    0.171981D-53    0.871369D-30    0.332351D-50    0.391081D+00
   0   357    0.341567D-54    0.346384D-30    0.638191D-51    0.391081D+00
   0   358    0.662985D-55    0.137697D-30    0.115655D-51    0.391081D+00
   0   359    0.132616D-55    0.547398D-31    0.234667D-52    0.391081D+00
   0   360    0.255329D-56    0.217615D-31    0.478571D-53    0.391081D+00
   0   361    0.494799D-57    0.865123D-32    0.984579D-54    0.391081D+00
   0   362    0.966736D-58    0.343931D-32    0.174183D-54    0.391081D+00
   0   363    0.189294D-58    0.136730D-32    0.482333D-55    0.391081D+00
   0   364    0.368509D-59    0.543571D-33    0.693213D-56    0.391081D+00
   0   365    0.715859D-60    0.216094D-33    0.210640D-56    0.391081D+00
   0   366    0.140145D-60    0.859061D-34    0.285942D-57    0.391081D+00
   0   367    0.270571D-61    0.341503D-34    0.533176D-58    0.391081D+00
   0   368    0.528434D-62    0.135754D-34    0.137145D-58    0.391081D+00
   0   369    0.103164D-62    0.539633D-35    0.243868D-59    0.391081D+00
   0   370    0.200096D-63    0.214499D-35    0.537766D-60    0.391081D+00
   0   371    0.388204D-64    0.852576D-36    0.666508D-61    0.391081D+00
   0   372    0.741968D-65    0.338859D-36    0.212428D-61    0.391081D+00
   0   373    0.143006D-65    0.134673D-36    0.377903D-62    0.391081D+00
   0   374    0.279605D-66    0.535197D-37    0.637297D-63    0.391081D+00
   0   375    0.528182D-67    0.212676D-37    0.105420D-63    0.391081D+00
   0   376    0.105782D-67    0.845070D-38    0.217329D-64    0.391081D+00
   0   377    0.206188D-68    0.335764D-38    0.354840D-65    0.391081D+00
   0   378    0.407347D-69    0.133395D-38    0.889744D-66    0.391081D+00
   0   379    0.806428D-70    0.529919D-39    0.136044D-66    0.391081D+00
   0   380    0.153757D-70    0.210495D-39    0.354771D-67    0.391081D+00
   0   381    0.296658D-71    0.836054D-40    0.627575D-68    0.391081D+00
   0   382    0.566857D-72    0.332038D-40    0.161838D-68    0.391081D+00
   0   383    0.109638D-72    0.131856D-40    0.247711D-69    0.391081D+00
   0   384    0.211801D-73    0.523564D-41    0.557590D-70    0.391081D+00
   0   385    0.419797D-74    0.207873D-41    0.794485D-71    0.391081D+00
   0   386    0.826372D-75    0.825250D-42    0.155777D-71    0.391081D+00
   0   387    0.161166D-75    0.327590D-42    0.304797D-72    0.391081D+00
   0   388    0.312927D-76    0.130027D-42    0.745548D-73    0.391081D+00
   0   389    0.603843D-77    0.516055D-43    0.135709D-73    0.391081D+00
   0   390    0.118625D-77    0.204794D-43    0.300026D-74    0.391081D+00
   0   391    0.228205D-78    0.812640D-44    0.483654D-75    0.391081D+00
   0   392    0.440966D-79    0.322434D-44    0.102956D-75    0.391081D+00
   0   393    0.890482D-80    0.127922D-44    0.165342D-76    0.391081D+00
   0   394    0.176097D-80    0.507468D-45    0.296349D-77    0.391081D+00
   0   395    0.342191D-81    0.201284D-45    0.707416D-78    0.391081D+00
   0   396    0.663947D-82    0.797970D-46    0.148053D-78    0.391081D+00
   0   397    0.131113D-82    0.315451D-46    0.314357D-79    0.391081D+00