variables =  "IG"  "JG"  "PHI"  "Temp."  "Latent_heat"  "mm"
ZONE  I=  401  J=  101
   0     0    0.100000D+01    0.638945D+00    0.000000D+00    0.357307D+00
   0     1    0.100000D+01    0.638945D+00    0.000000D+00    0.357307D+00
   0     2    0.100000D+01    0.643713D+00    0.000000D+00    0.356703D+00
   0     3    0.100000D+01    0.653151D+00    0.000000D+00    0.355471D+00
   0     4    0.100000D+01    0.667062D+00    0.000000D+00    0.353559D+00
   0     5    0.100000D+01    0.685162D+00    0.000000D+00    0.350884D+00
   0     6    0.100000D+01    0.707088D+00    0.000000D+00    0.347324D+00
   0     7    0.100000D+01    0.732406D+00    0.000000D+00    0.342704D+00
   0     8    0.100000D+01    0.760633D+00    0.000000D+00    0.336776D+00
   0     9    0.100000D+01    0.791244D+00    0.000000D+00    0.329190D+00
   0    10    0.100000D+01    0.823695D+00    0.000000D+00    0.319444D+00
   0    11    0.100000D+01    0.857434D+00    0.000000D+00    0.306809D+00
   0    12    0.100000D+01    0.891918D+00    0.000000D+00    0.290215D+00
   0    13    0.100000D+01    0.926630D+00    0.000000D+00    0.268077D+00
   0    14    0.100000D+01    0.961082D+00    0.000000D+00    0.238096D+00
   0    15    0.100000D+01    0.994837D+00    0.000000D+00    0.197201D+00
   0    16    0.100000D+01    0.102751D+01    0.000000D+00    0.142324D+00
   0    17    0.100000D+01    0.105876D+01    0.000000D+00    0.732899D-01
   0    18    0.100000D+01    0.108833D+01    0.000000D+00   -0.296055D-02
   0    19    0.100000D+01    0.111600D+01    0.291706D-10   -0.741195D-01
   0    20    0.100000D+01    0.114161D+01   -0.364632D-09   -0.131740D+00
   0    21    0.100000D+01    0.116505D+01    0.284413D-08   -0.174899D+00
   0    22    0.100000D+01    0.118626D+01    0.128205D-07   -0.206408D+00
   0    23    0.100000D+01    0.120519D+01    0.132711D-06   -0.229426D+00
   0    24    0.100000D+01    0.122181D+01   -0.307779D-06   -0.246384D+00
   0    25    0.100000D+01    0.123609D+01    0.291402D-05   -0.258950D+00
   0    26    0.100000D+01    0.124800D+01   -0.678556D-05   -0.268224D+00
   0    27    0.100000D+01    0.125746D+01    0.454247D-05   -0.274910D+00
   0    28    0.999999D+00    0.126431D+01   -0.698151D-04   -0.279427D+00
   0    29    0.999997D+00    0.126837D+01   -0.156311D-02   -0.281976D+00
   0    30    0.999988D+00    0.126931D+01    0.127838D-02   -0.282553D+00
   0    31    0.999945D+00    0.126667D+01    0.524610D-02   -0.280924D+00
   0    32    0.999734D+00    0.125982D+01    0.271475D-01   -0.276508D+00
   0    33    0.998729D+00    0.124784D+01   -0.115226D+00   -0.268119D+00
   0    34    0.993805D+00    0.122934D+01   -0.160572D+01   -0.253225D+00
   0    35    0.968032D+00    0.120181D+01    0.388475D+01   -0.225730D+00
   0    36    0.838146D+00    0.116496D+01   -0.599435D+02   -0.175225D+00
   0    37    0.342336D+00    0.112128D+01    0.219644D+02   -0.855133D-01
   0    38    0.773827D-01    0.110928D+01    0.163518D+02   -0.592493D-01
   0    39    0.247432D-01    0.109934D+01    0.113929D+01   -0.320283D-01
   0    40    0.172250D-01    0.109340D+01    0.177162D+01   -0.158356D-01
   0    41    0.212442D-01    0.109214D+01    0.273505D+01   -0.134753D-01
   0    42    0.277250D-01    0.109608D+01    0.101875D+02   -0.224916D-01
   0    43    0.324030D-01    0.109809D+01   -0.955168D+01   -0.268897D-01
   0    44    0.360099D-01    0.109911D+01   -0.240615D+02   -0.303253D-01
   0    45    0.391045D-01    0.109661D+01    0.535984D+01   -0.245526D-01
   0    46    0.418198D-01    0.109586D+01    0.889939D+01   -0.216525D-01
   0    47    0.452200D-01    0.109040D+01   -0.922839D+01   -0.841953D-02
   0    48    0.497555D-01    0.108536D+01    0.889406D+01    0.467861D-02
   0    49    0.561256D-01    0.108336D+01   -0.979730D+01    0.107829D-01
   0    50    0.637464D-01    0.107889D+01   -0.115278D+01    0.245211D-01
   0    51    0.748701D-01    0.107529D+01   -0.542255D+02    0.316641D-01
   0    52    0.875091D-01    0.107585D+01    0.144581D+02    0.327323D-01
   0    53    0.101671D+00    0.106996D+01    0.162749D+02    0.456050D-01
   0    54    0.116952D+00    0.107366D+01   -0.156208D+02    0.348895D-01
   0    55    0.137403D+00    0.107681D+01   -0.276156D+02    0.250302D-01
   0    56    0.149553D+00    0.108649D+01    0.376159D+02    0.250424D-02
   0    57    0.170524D+00    0.109176D+01   -0.297106D+02   -0.169328D-01
   0    58    0.192614D+00    0.109681D+01   -0.661434D+02   -0.282920D-01
   0    59    0.213276D+00    0.110379D+01   -0.126500D+03   -0.430784D-01
   0    60    0.238920D+00    0.109422D+01   -0.180134D+02   -0.154296D-01
   0    61    0.251768D+00    0.104900D+01   -0.838713D+02    0.102457D+00
   0    62    0.160316D+00    0.891187D+00    0.109124D+03    0.291934D+00
   0    63    0.555377D-01    0.560795D+00    0.121645D+03    0.366043D+00
   0    64    0.147761D-01    0.291415D+00    0.226369D+02    0.382375D+00
   0    65    0.360527D-02    0.137324D+00    0.770485D+01    0.387632D+00
   0    66    0.824794D-03    0.612903D-01    0.208096D+01    0.389654D+00
   0    67    0.191906D-03    0.264785D-01    0.257312D+00    0.390485D+00
   0    68    0.425574D-04    0.112073D-01    0.613120D-01    0.390832D+00
   0    69    0.907322D-05    0.468050D-02    0.249904D-01    0.390978D+00
   0    70    0.191895D-05    0.193687D-02    0.351911D-02    0.391039D+00
   0    71    0.410043D-06    0.796201D-03    0.703063D-03    0.391064D+00
   0    72    0.858787D-07    0.325673D-03    0.233009D-03    0.391074D+00
   0    73    0.176120D-07    0.132703D-03    0.286993D-04    0.391078D+00
   0    74    0.376020D-08    0.539097D-04    0.721073D-05    0.391080D+00
   0    75    0.759350D-09    0.218466D-04    0.132596D-05    0.391081D+00
   0    76    0.155634D-09    0.883501D-05    0.439260D-06    0.391081D+00
   0    77    0.312567D-10    0.356668D-05    0.873266D-07    0.391081D+00
   0    78    0.634626D-11    0.143763D-05    0.178812D-07    0.391081D+00
   0    79    0.128665D-11    0.578659D-06    0.234273D-08    0.391081D+00
   0    80    0.258342D-12    0.232619D-06    0.529034D-09    0.391081D+00
   0    81    0.517664D-13    0.934017D-07    0.151734D-09    0.391081D+00
   0    82    0.105399D-13    0.374611D-07    0.221015D-10    0.391081D+00
   0    83    0.213853D-14    0.150089D-07    0.394034D-11    0.391081D+00
   0    84    0.422131D-15    0.600722D-08    0.111258D-11    0.391081D+00
   0    85    0.852232D-16    0.240198D-08    0.219640D-12    0.391081D+00
   0    86    0.168034D-16    0.959489D-09    0.357879D-13    0.391081D+00
   0    87    0.337424D-17    0.382901D-09    0.601406D-14    0.391081D+00
   0    88    0.664866D-18    0.152652D-09    0.187380D-14    0.391081D+00
   0    89    0.133996D-18    0.607966D-10    0.364293D-15    0.391081D+00
   0    90    0.263352D-19    0.241880D-10    0.752698D-16    0.391081D+00
   0    91    0.523796D-20    0.961269D-11    0.839726D-17    0.391081D+00
   0    92    0.103570D-20    0.381583D-11    0.241735D-17    0.391081D+00
   0    93    0.206922D-21    0.151288D-11    0.345685D-18    0.391081D+00
   0    94    0.410906D-22    0.599041D-12    0.987230D-19    0.391081D+00
   0    95    0.815932D-23    0.236872D-12    0.128724D-19    0.391081D+00
   0    96    0.164055D-23    0.935267D-13    0.425558D-20    0.391081D+00
   0    97    0.329767D-24    0.368708D-13    0.662412D-21    0.391081D+00
   0    98    0.642819D-25    0.145115D-13    0.127301D-21    0.391081D+00
   0    99    0.124935D-25    0.570135D-14    0.274528D-22    0.391081D+00
   0   100    0.249244D-26    0.223581D-14    0.644401D-23    0.391081D+00
   0   101    0.489438D-27    0.875056D-15    0.101887D-23    0.391081D+00
   0   102    0.975955D-28    0.341768D-15    0.231582D-24    0.391081D+00
   0   103    0.194449D-28    0.133190D-15    0.350508D-25    0.391081D+00
   0   104    0.388462D-29    0.517851D-16    0.688950D-26    0.391081D+00
   0   105    0.762726D-30    0.200854D-16    0.170811D-26    0.391081D+00
   0   106    0.149260D-30    0.777048D-17    0.246283D-27    0.391081D+00
   0   107    0.294636D-31    0.299815D-17    0.577815D-28    0.391081D+00
   0   108    0.583853D-32    0.115357D-17    0.160962D-28    0.391081D+00
   0   109    0.115043D-32    0.442560D-18    0.246639D-29    0.391081D+00
   0   110    0.228717D-33    0.169271D-18    0.576843D-30    0.391081D+00
   0   111    0.444442D-34    0.645397D-19    0.100244D-30    0.391081D+00
   0   112    0.881077D-35    0.245275D-19    0.198340D-31    0.391081D+00
   0   113    0.171776D-35    0.929000D-20    0.329455D-32    0.391081D+00
   0   114    0.333629D-36    0.350642D-20    0.764376D-33    0.391081D+00
   0   115    0.663604D-37    0.131872D-20    0.147695D-33    0.391081D+00
   0   116    0.128366D-37    0.494128D-21    0.319984D-34    0.391081D+00
   0   117    0.249589D-38    0.184450D-21    0.685177D-35    0.391081D+00
   0   118    0.495724D-39    0.685850D-22    0.798410D-36    0.391081D+00
   0   119    0.969083D-40    0.254011D-22    0.244586D-36    0.391081D+00
   0   120    0.193166D-40    0.936939D-23    0.346239D-37    0.391081D+00
   0   121    0.383708D-41    0.344167D-23    0.838964D-38    0.391081D+00
   0   122    0.732531D-42    0.125890D-23    0.224419D-38    0.391081D+00
   0   123    0.145951D-42    0.458509D-24    0.327371D-39    0.391081D+00
   0   124    0.289484D-43    0.166267D-24    0.461217D-40    0.391081D+00
   0   125    0.559195D-44    0.600263D-25    0.129188D-40    0.391081D+00
   0   126    0.108879D-44    0.215737D-25    0.314950D-41    0.391081D+00
   0   127    0.216505D-45    0.771849D-26    0.536336D-42    0.391081D+00
   0   128    0.430379D-46    0.274879D-26    0.966293D-43    0.391081D+00
   0   129    0.829420D-47    0.974382D-27    0.149771D-43    0.391081D+00
   0   130    0.160357D-47    0.343778D-27    0.277299D-44    0.391081D+00
   0   131    0.308756D-48    0.120717D-27    0.636769D-45    0.391081D+00
   0   132    0.612654D-49    0.421877D-28    0.152095D-45    0.391081D+00
   0   133    0.119737D-49    0.146728D-28    0.323116D-46    0.391081D+00
   0   134    0.231349D-50    0.507850D-29    0.548449D-47    0.391081D+00
   0   135    0.461969D-51    0.174921D-29    0.888070D-48    0.391081D+00
   0   136    0.904964D-52    0.599546D-30    0.225484D-48    0.391081D+00
   0   137    0.176855D-52    0.204486D-30    0.367486D-49    0.391081D+00
   0   138    0.342743D-53    0.693999D-31    0.949413D-50    0.391081D+00
   0   139    0.672605D-54    0.234368D-31    0.137701D-50    0.391081D+00
   0   140    0.132496D-54    0.787545D-32    0.304556D-51    0.391081D+00
   0   141    0.262814D-55    0.263320D-32    0.666825D-52    0.391081D+00
   0   142    0.508122D-56    0.876025D-33    0.132268D-52    0.391081D+00
   0   143    0.983531D-57    0.289982D-33    0.276652D-53    0.391081D+00
   0   144    0.192046D-57    0.955084D-34    0.521047D-54    0.391081D+00
   0   145    0.376967D-58    0.312987D-34    0.864753D-55    0.391081D+00
   0   146    0.732936D-59    0.102052D-34    0.131895D-55    0.391081D+00
   0   147    0.142192D-59    0.331074D-35    0.406373D-56    0.391081D+00
   0   148    0.280605D-60    0.106865D-35    0.741156D-57    0.391081D+00
   0   149    0.543547D-61    0.343204D-36    0.129089D-57    0.391081D+00
   0   150    0.106199D-61    0.109667D-36    0.222588D-58    0.391081D+00
   0   151    0.209019D-62    0.348661D-37    0.320526D-59    0.391081D+00
   0   152    0.406935D-63    0.110290D-37    0.886403D-60    0.391081D+00
   0   153    0.792014D-64    0.347120D-38    0.197154D-60    0.391081D+00
   0   154    0.150102D-64    0.108700D-38    0.431784D-61    0.391081D+00
   0   155    0.293237D-65    0.338678D-39    0.632376D-62    0.391081D+00
   0   156    0.582392D-66    0.104992D-39    0.161888D-62    0.391081D+00
   0   157    0.111883D-66    0.323848D-40    0.289364D-63    0.391081D+00
   0   158    0.215203D-67    0.993896D-41    0.533846D-64    0.391081D+00
   0   159    0.413212D-68    0.303500D-41    0.105443D-64    0.391081D+00
   0   160    0.819114D-69    0.922145D-42    0.226785D-65    0.391081D+00
   0   161    0.158412D-69    0.278782D-42    0.272067D-66    0.391081D+00
   0   162    0.304347D-70    0.838605D-43    0.642110D-67    0.391081D+00
   0   163    0.594482D-71    0.251005D-43    0.137568D-67    0.391081D+00
   0   164    0.114891D-71    0.747553D-44    0.248142D-68    0.391081D+00
   0   165    0.224892D-72    0.221535D-44    0.472234D-69    0.391081D+00
   0   166    0.436666D-73    0.653258D-45    0.986835D-70    0.391081D+00
   0   167    0.839830D-74    0.191680D-45    0.214671D-70    0.391081D+00
   0   168    0.161825D-74    0.559653D-46    0.325858D-71    0.391081D+00
   0   169    0.314857D-75    0.162599D-46    0.768577D-72    0.391081D+00
   0   170    0.597267D-76    0.470088D-47    0.150816D-72    0.391081D+00
   0   171    0.114060D-76    0.135240D-47    0.266136D-73    0.391081D+00
   0   172    0.224000D-77    0.387171D-48    0.568705D-74    0.391081D+00
   0   173    0.427130D-78    0.110300D-48    0.779402D-75    0.391081D+00
   0   174    0.836923D-79    0.312700D-49    0.157376D-75    0.391081D+00
   0   175    0.160717D-79    0.882200D-50    0.422552D-76    0.391081D+00
   0   176    0.307671D-80    0.247683D-50    0.865022D-77    0.391081D+00
   0   177    0.593022D-81    0.692024D-51    0.102134D-77    0.391081D+00
   0   178    0.112195D-81    0.192419D-51    0.302903D-78    0.391081D+00
   0   179    0.212448D-82    0.532452D-52    0.446743D-79    0.391081D+00
   0   180    0.415546D-83    0.146631D-52    0.813765D-80    0.391081D+00
   0   181    0.796250D-84    0.401870D-53    0.200226D-80    0.391081D+00
   0   182    0.151121D-84    0.109615D-53    0.380664D-81    0.391081D+00
   0   183    0.285686D-85    0.297565D-54    0.761982D-82    0.391081D+00
   0   184    0.549677D-86    0.803947D-55    0.136792D-82    0.391081D+00
   0   185    0.104123D-86    0.216178D-55    0.263667D-83    0.391081D+00
   0   186    0.199422D-87    0.578550D-56    0.537872D-84    0.391081D+00
   0   187    0.375511D-88    0.154106D-56    0.782826D-85    0.391081D+00
   0   188    0.717542D-89    0.408559D-57    0.127347D-85    0.391081D+00
   0   189    0.136436D-89    0.107808D-57    0.298036D-86    0.391081D+00
   0   190    0.256385D-90    0.283148D-58    0.554070D-87    0.391081D+00
   0   191    0.483310D-91    0.740201D-59    0.119143D-87    0.391081D+00
   0   192    0.909220D-92    0.192603D-59    0.167534D-88    0.391081D+00
   0   193    0.173037D-92    0.498841D-60    0.362118D-89    0.391081D+00
   0   194    0.323152D-93    0.128603D-60    0.727366D-90    0.391081D+00
   0   195    0.591417D-94    0.330014D-61    0.151725D-90    0.391081D+00
   0   196    0.112092D-94    0.842978D-62    0.271315D-91    0.391081D+00
   0   197    0.207052D-95    0.214342D-62    0.475451D-92    0.391081D+00
   0   198    0.386696D-96    0.542513D-63    0.120809D-92    0.391081D+00
   0   199    0.724665D-97    0.136688D-63    0.144879D-93    0.391081D+00
   0   200    0.132601D-97    0.342827D-64    0.371659D-94    0.391081D+00
   0   201    0.245827D-98    0.855952D-65    0.746628D-95    0.391081D+00
   0   202    0.446399D-99    0.212745D-65    0.135214D-95    0.391081D+00
   0   203    0.816894-100    0.526391D-66    0.163104D-96    0.391081D+00
   0   204    0.151329-100    0.129660D-66    0.367306D-97    0.391081D+00
   0   205    0.278355-101    0.317946D-67    0.681646D-98    0.391081D+00
   0   206    0.508970-102    0.776176D-68    0.115994D-98    0.391081D+00
   0   207    0.939491-103    0.188638D-68    0.194170D-99    0.391081D+00
   0   208    0.169614-103    0.456424D-69    0.500593-100    0.391081D+00
   0   209    0.305418-104    0.109947D-69    0.708188-101    0.391081D+00
   0   210    0.556630-105    0.263680D-70    0.136757-101    0.391081D+00
   0   211    0.998463-106    0.629588D-71    0.226050-102    0.391081D+00
   0   212    0.178561-106    0.149668D-71    0.466984-103    0.391081D+00
   0   213    0.316664-107    0.354239D-72    0.703462-104    0.391081D+00
   0   214    0.571028-108    0.834771D-73    0.124881-104    0.391081D+00
   0   215    0.101993-108    0.195861D-73    0.224942-105    0.391081D+00
   0   216    0.181877-109    0.457552D-74    0.495705-106    0.391081D+00
   0   217    0.318385-110    0.106427D-74    0.908131-107    0.391081D+00
   0   218    0.563052-111    0.246485D-75    0.141608-107    0.391081D+00
   0   219    0.978241-112    0.568407D-76    0.248157-108    0.391081D+00
   0   220    0.173034-112    0.130516D-76    0.577491-109    0.391081D+00
   0   221    0.305290-113    0.298407D-77    0.723584-110    0.391081D+00
   0   222    0.539738-114    0.679363D-78    0.126785-110    0.391081D+00
   0   223    0.943453-115    0.154009D-78    0.311771-111    0.391081D+00
   0   224    0.163274-115    0.347656D-79    0.516019-112    0.391081D+00
   0   225    0.286009-116    0.781475D-80    0.639441-113    0.391081D+00
   0   226    0.494005-117    0.174924D-80    0.132720-113    0.391081D+00
   0   227    0.853787-118    0.389904D-81    0.241706-114    0.391081D+00
   0   228    0.145218-118    0.865458D-82    0.502261-115    0.391081D+00
   0   229    0.248566-119    0.191302D-82    0.786126-116    0.391081D+00
   0   230    0.424182-120    0.421096D-83    0.104767-116    0.391081D+00
   0   231    0.700675-121    0.923080D-84    0.252575-117    0.391081D+00
   0   232    0.120004-121    0.201511D-84    0.308929-118    0.391081D+00
   0   233    0.204360-122    0.438090D-85    0.590992-119    0.391081D+00
   0   234    0.349167-123    0.948504D-86    0.878926-120    0.391081D+00
   0   235    0.587099-124    0.204518D-86    0.215126-120    0.391081D+00
   0   236    0.973158-125    0.439184D-87    0.311738-121    0.391081D+00
   0   237    0.164475-125    0.939263D-88    0.506806-122    0.391081D+00
   0   238    0.276783-126    0.200060D-88    0.847298-123    0.391081D+00
   0   239    0.453324-127    0.424396D-89    0.175312-123    0.391081D+00
   0   240    0.745117-128    0.896654D-90    0.208139-124    0.391081D+00
   0   241    0.119300-128    0.188680D-90    0.437495-125    0.391081D+00
   0   242    0.196050-129    0.395439D-91    0.514494-126    0.391081D+00
   0   243    0.316453-130    0.825450D-92    0.101779-126    0.391081D+00
   0   244    0.520984-131    0.171619D-92    0.191505-127    0.391081D+00
   0   245    0.853599-132    0.355392D-93    0.299593-128    0.391081D+00
   0   246    0.135634-132    0.733033D-94    0.406737-129    0.391081D+00
   0   247    0.219503-133    0.150597D-94    0.637664-130    0.391081D+00
   0   248    0.355761-134    0.308172D-95    0.116933-130    0.391081D+00
   0   249    0.573283-135    0.628142D-96    0.165495-131    0.391081D+00
   0   250    0.912792-136    0.127531D-96    0.292053-132    0.391081D+00
   0   251    0.145357-136    0.257912D-97    0.531506-133    0.391081D+00
   0   252    0.227820-137    0.519553D-98    0.760368-134    0.391081D+00
   0   253    0.359198-138    0.104255D-98    0.119732-134    0.391081D+00
   0   254    0.571979-139    0.208389D-99    0.215641-135    0.391081D+00
   0   255    0.895749-140    0.414927-100    0.303044-136    0.391081D+00
   0   256    0.139809-140    0.822983-101    0.523128-137    0.391081D+00
   0   257    0.219853-141    0.162606-101    0.820691-138    0.391081D+00
   0   258    0.342267-142    0.320048-102    0.104552-138    0.391081D+00
   0   259    0.523931-143    0.627524-103    0.208523-139    0.391081D+00
   0   260    0.791011-144    0.122571-103    0.264894-140    0.391081D+00
   0   261    0.121884-144    0.238501-104    0.481959-141    0.391081D+00
   0   262    0.185898-145    0.462321-105    0.710884-142    0.391081D+00
   0   263    0.290467-146    0.892798-106    0.984007-143    0.391081D+00
   0   264    0.450838-147    0.171761-106    0.172669-143    0.391081D+00
   0   265    0.673005-148    0.329199-107    0.227873-144    0.391081D+00
   0   266    0.999870-149    0.628584-108    0.374730-145    0.391081D+00
   0   267    0.150298-149    0.119576-108    0.669630-146    0.391081D+00
   0   268    0.227108-150    0.226622-109    0.854686-147    0.391081D+00
   0   269    0.335727-151    0.427901-110    0.148473-147    0.391081D+00
   0   270    0.496790-152    0.804958-111    0.176298-148    0.391081D+00
   0   271    0.738784-153    0.150868-111    0.274723-149    0.391081D+00
   0   272    0.108034-153    0.281719-112    0.445208-150    0.391081D+00
   0   273    0.161471-154    0.524128-113    0.719303-151    0.391081D+00
   0   274    0.237557-155    0.971551-114    0.101355-151    0.391081D+00
   0   275    0.349047-156    0.179434-114    0.122711-152    0.391081D+00
   0   276    0.509987-157    0.330185-115    0.212101-153    0.391081D+00
   0   277    0.727817-158    0.605384-116    0.356456-154    0.391081D+00
   0   278    0.103905-158    0.110593-116    0.430416-155    0.391081D+00
   0   279    0.149832-159    0.201304-117    0.571093-156    0.391081D+00
   0   280    0.215896-160    0.365100-118    0.869379-157    0.391081D+00
   0   281    0.308427-161    0.659791-119    0.141511-157    0.391081D+00
   0   282    0.438756-162    0.118807-119    0.177321-158    0.391081D+00
   0   283    0.622043-163    0.213170-120    0.279473-159    0.391081D+00
   0   284    0.887013-164    0.381116-121    0.348466-160    0.391081D+00
   0   285    0.123826-164    0.678959-122    0.510423-161    0.391081D+00
   0   286    0.176642-165    0.120528-122    0.815784-162    0.391081D+00
   0   287    0.244615-166    0.213204-123    0.124662-162    0.391081D+00
   0   288    0.336806-167    0.375812-124    0.154383-163    0.391081D+00
   0   289    0.466922-168    0.660110-125    0.205807-164    0.391081D+00
   0   290    0.665686-169    0.115541-125    0.294867-165    0.391081D+00
   0   291    0.931145-170    0.201529-126    0.352174-166    0.391081D+00
   0   292    0.127985-170    0.350285-127    0.609451-167    0.391081D+00
   0   293    0.173978-171    0.606726-128    0.756336-168    0.391081D+00
   0   294    0.237906-172    0.104726-128    0.119806-168    0.391081D+00
   0   295    0.324302-173    0.180142-129    0.158116-169    0.391081D+00
   0   296    0.446934-174    0.308798-130    0.223835-170    0.391081D+00
   0   297    0.594644-175    0.527518-131    0.285169-171    0.391081D+00
   0   298    0.803650-176    0.898065-132    0.364712-172    0.391081D+00
   0   299    0.108776-176    0.152367-132    0.571122-173    0.391081D+00
   0   300    0.147539-177    0.257626-133    0.687689-174    0.391081D+00
   0   301    0.199686-178    0.434118-134    0.841518-175    0.391081D+00
   0   302    0.266421-179    0.729039-135    0.126938-175    0.391081D+00
   0   303    0.352175-180    0.122017-135    0.162032-176    0.391081D+00
   0   304    0.467435-181    0.203527-136    0.232296-177    0.391081D+00
   0   305    0.624217-182    0.338346-137    0.291193-178    0.391081D+00
   0   306    0.814824-183    0.560580-138    0.393765-179    0.391081D+00
   0   307    0.108247-183    0.925673-139    0.504589-180    0.391081D+00
   0   308    0.141611-184    0.152344-139    0.730149-181    0.391081D+00
   0   309    0.182125-185    0.249887-140    0.101411-181    0.391081D+00
   0   310    0.234019-186    0.408523-141    0.130542-182    0.391081D+00
   0   311    0.310162-187    0.665653-142    0.140292-183    0.391081D+00
   0   312    0.396903-188    0.108104-142    0.224911-184    0.391081D+00
   0   313    0.514695-189    0.174985-143    0.247872-185    0.391081D+00
   0   314    0.652139-190    0.282313-144    0.346310-186    0.391081D+00
   0   315    0.827519-191    0.453978-145    0.429382-187    0.391081D+00
   0   316    0.105956-191    0.727637-146    0.474485-188    0.391081D+00
   0   317    0.133352-192    0.116245-146    0.764441-189    0.391081D+00
   0   318    0.168396-193    0.185106-147    0.787495-190    0.391081D+00
   0   319    0.213300-194    0.293802-148    0.109363-190    0.391081D+00
   0   320    0.268856-195    0.464815-149    0.131859-191    0.391081D+00
   0   321    0.337155-196    0.732995-150    0.198660-192    0.391081D+00
   0   322    0.423455-197    0.115218-150    0.210259-193    0.391081D+00
   0   323    0.525337-198    0.180527-151    0.247749-194    0.391081D+00
   0   324    0.643650-199    0.281949-152    0.325097-195    0.391081D+00
   0   325    0.795518-200    0.438944-153    0.409068-196    0.391081D+00
   0   326    0.998453-201    0.681177-154    0.522371-197    0.391081D+00
   0   327    0.120220-201    0.105373-154    0.685586-198    0.391081D+00
   0   328    0.148480-202    0.162486-155    0.752003-199    0.391081D+00
   0   329    0.181918-203    0.249762-156    0.105575-199    0.391081D+00
   0   330    0.219540-204    0.382706-157    0.114350-200    0.391081D+00
   0   331    0.272473-205    0.584566-158    0.144339-201    0.391081D+00
   0   332    0.328183-206    0.890096-159    0.199977-202    0.391081D+00
   0   333    0.400191-207    0.135107-159    0.230593-203    0.391081D+00
   0   334    0.473927-208    0.204436-160    0.284057-204    0.391081D+00
   0   335    0.566815-209    0.308377-161    0.343757-205    0.391081D+00
   0   336    0.682787-210    0.463719-162    0.349654-206    0.391081D+00
   0   337    0.801289-211    0.695149-163    0.486438-207    0.391081D+00
   0   338    0.938719-212    0.103886-163    0.525548-208    0.391081D+00
   0   339    0.113101-212    0.154771-164    0.629416-209    0.391081D+00
   0   340    0.131851-213    0.229871-165    0.812331-210    0.391081D+00
   0   341    0.153220-214    0.340365-166    0.902525-211    0.391081D+00
   0   342    0.179329-215    0.502425-167    0.948486-212    0.391081D+00
   0   343    0.207803-216    0.739381-168    0.117663-212    0.391081D+00
   0   344    0.237517-217    0.108477-168    0.137159-213    0.391081D+00
   0   345    0.276333-218    0.158667-169    0.168479-214    0.391081D+00
   0   346    0.320588-219    0.231374-170    0.174388-215    0.391081D+00
   0   347    0.365256-220    0.336377-171    0.211997-216    0.391081D+00
   0   348    0.424034-221    0.487556-172    0.232501-217    0.391081D+00
   0   349    0.489810-222    0.704550-173    0.302453-218    0.391081D+00
   0   350    0.557680-223    0.101506-173    0.323893-219    0.391081D+00
   0   351    0.643934-224    0.145804-174    0.366883-220    0.391081D+00
   0   352    0.733236-225    0.208807-175    0.487534-221    0.391081D+00
   0   353    0.828255-226    0.298141-176    0.472643-222    0.391081D+00
   0   354    0.939425-227    0.424429-177    0.566983-223    0.391081D+00
   0   355    0.106347-227    0.602416-178    0.625996-224    0.391081D+00
   0   356    0.119785-228    0.852510-179    0.804285-225    0.391081D+00
   0   357    0.131714-229    0.120286-179    0.812704-226    0.391081D+00
   0   358    0.147111-230    0.169220-180    0.919681-227    0.391081D+00
   0   359    0.163438-231    0.237360-181    0.994844-228    0.391081D+00
   0   360    0.181606-232    0.331960-182    0.113540-228    0.391081D+00
   0   361    0.198832-233    0.462904-183    0.129550-229    0.391081D+00
   0   362    0.221533-234    0.643614-184    0.135321-230    0.391081D+00
   0   363    0.244677-235    0.892262-185    0.172299-231    0.391081D+00
   0   364    0.274281-236    0.123337-185    0.157879-232    0.391081D+00
   0   365    0.300359-237    0.169995-186    0.192276-233    0.391081D+00
   0   366    0.326279-238    0.233624-187    0.202613-234    0.391081D+00
   0   367    0.357759-239    0.320143-188    0.213449-235    0.391081D+00
   0   368    0.394370-240    0.437439-189    0.243474-236    0.391081D+00
   0   369    0.423912-241    0.595992-190    0.308200-237    0.391081D+00
   0   370    0.450357-242    0.809686-191    0.302211-238    0.391081D+00
   0   371    0.483355-243    0.109685-191    0.306642-239    0.391081D+00
   0   372    0.522406-244    0.148162-192    0.351194-240    0.391081D+00
   0   373    0.559561-245    0.199567-193    0.351959-241    0.391081D+00
   0   374    0.588250-246    0.268043-194    0.379470-242    0.391081D+00
   0   375    0.620398-247    0.358994-195    0.419770-243    0.391081D+00
   0   376    0.658560-248    0.479445-196    0.460072-244    0.391081D+00
   0   377    0.701239-249    0.638504-197    0.435225-245    0.391081D+00
   0   378    0.745871-250    0.847937-198    0.470375-246    0.391081D+00
   0   379    0.782549-251    0.112290-198    0.513909-247    0.391081D+00
   0   380    0.821411-252    0.148286-199    0.618333-248    0.391081D+00
   0   381    0.856653-253    0.195273-200    0.567481-249    0.391081D+00
   0   382    0.891881-254    0.256431-201    0.603132-250    0.391081D+00
   0   383    0.937753-255    0.335805-202    0.608579-251    0.391081D+00
   0   384    0.965692-256    0.438526-203    0.741563-252    0.391081D+00
   0   385    0.101607-256    0.571082-204    0.768245-253    0.391081D+00
   0   386    0.105428-257    0.741649-205    0.742144-254    0.391081D+00
   0   387    0.108198-258    0.960501-206    0.704757-255    0.391081D+00
   0   388    0.111339-259    0.124051-206    0.832081-256    0.391081D+00
   0   389    0.113549-260    0.159774-207    0.756483-257    0.391081D+00
   0   390    0.115116-261    0.205220-208    0.790495-258    0.391081D+00
   0   391    0.117255-262    0.262872-209    0.779087-259    0.391081D+00
   0   392    0.117192-263    0.335800-210    0.898523-260    0.391081D+00
   0   393    0.119205-264    0.427792-211    0.903492-261    0.391081D+00
   0   394    0.120082-265    0.543504-212    0.919704-262    0.391081D+00
   0   395    0.120308-266    0.688640-213    0.896339-263    0.391081D+00
   0   396    0.122508-267    0.870173-214    0.892520-264    0.391081D+00
   0   397    0.120230-268    0.109659-214    0.854419-265    0.391081D+00