variables =  "IG"  "JG"  "PHI"  "Temp."  "Latent_heat"  "mm"
ZONE  I=  401  J=  101
   0     0    0.100000D+01    0.100313D+01    0.000000D+00    0.184898D+00
   0     1    0.100000D+01    0.100313D+01    0.000000D+00    0.184898D+00
   0     2    0.100000D+01    0.100340D+01    0.000000D+00    0.184476D+00
   0     3    0.100000D+01    0.100395D+01    0.000000D+00    0.183630D+00
   0     4    0.100000D+01    0.100476D+01    0.000000D+00    0.182359D+00
   0     5    0.100000D+01    0.100583D+01    0.000000D+00    0.180660D+00
   0     6    0.100000D+01    0.100716D+01    0.000000D+00    0.178527D+00
   0     7    0.100000D+01    0.100875D+01    0.000000D+00    0.175957D+00
   0     8    0.100000D+01    0.101057D+01    0.000000D+00    0.172945D+00
   0     9    0.100000D+01    0.101263D+01    0.000000D+00    0.169484D+00
   0    10    0.100000D+01    0.101491D+01    0.000000D+00    0.165569D+00
   0    11    0.100000D+01    0.101740D+01    0.000000D+00    0.161197D+00
   0    12    0.100000D+01    0.102008D+01    0.000000D+00    0.156363D+00
   0    13    0.100000D+01    0.102295D+01    0.000000D+00    0.151065D+00
   0    14    0.100000D+01    0.102599D+01    0.000000D+00    0.145304D+00
   0    15    0.100000D+01    0.102918D+01    0.000000D+00    0.139084D+00
   0    16    0.100000D+01    0.103250D+01    0.000000D+00    0.132412D+00
   0    17    0.100000D+01    0.103595D+01    0.000000D+00    0.125300D+00
   0    18    0.100000D+01    0.103950D+01    0.000000D+00    0.117766D+00
   0    19    0.100000D+01    0.104313D+01    0.000000D+00    0.109833D+00
   0    20    0.100000D+01    0.104683D+01    0.000000D+00    0.101533D+00
   0    21    0.100000D+01    0.105058D+01    0.000000D+00    0.929019D-01
   0    22    0.100000D+01    0.105436D+01    0.875117D-10    0.839848D-01
   0    23    0.100000D+01    0.105815D+01    0.991799D-09    0.748327D-01
   0    24    0.100000D+01    0.106194D+01   -0.920331D-08    0.655031D-01
   0    25    0.100000D+01    0.106571D+01   -0.275516D-07    0.560582D-01
   0    26    0.100000D+01    0.106944D+01    0.262156D-06    0.465637D-01
   0    27    0.100000D+01    0.107312D+01   -0.542377D-05    0.370865D-01
   0    28    0.100000D+01    0.107672D+01   -0.330794D-06    0.276931D-01
   0    29    0.999999D+00    0.108025D+01    0.174278D-03    0.184472D-01
   0    30    0.999993D+00    0.108367D+01   -0.461957D-03    0.941114D-02
   0    31    0.999945D+00    0.108699D+01    0.241551D-01    0.651934D-03
   0    32    0.999573D+00    0.109016D+01   -0.771727D-01   -0.774327D-02
   0    33    0.996732D+00    0.109315D+01    0.457605D+00   -0.156615D-01
   0    34    0.974877D+00    0.109600D+01   -0.766769D+01   -0.234528D-01
   0    35    0.822179D+00    0.109859D+01   -0.727252D+02   -0.323660D-01
   0    36    0.157107D+00    0.110099D+01   -0.125058D+02   -0.368157D-01
   0    37    0.218883D-01    0.110241D+01    0.714520D+01   -0.399324D-01
   0    38    0.305521D-02    0.110369D+01    0.874956D+00   -0.431667D-01
   0    39    0.483969D-03    0.110447D+01    0.691836D-01   -0.451113D-01
   0    40    0.121294D-03    0.110490D+01    0.587028D-01   -0.462201D-01
   0    41    0.686351D-04    0.110500D+01   -0.651061D-02   -0.464872D-01
   0    42    0.594073D-04    0.110480D+01    0.650100D-02   -0.459659D-01
   0    43    0.596509D-04    0.110432D+01   -0.201451D-02   -0.447428D-01
   0    44    0.599156D-04    0.110351D+01   -0.322256D-01   -0.426732D-01
   0    45    0.623375D-04    0.110239D+01    0.572121D-02   -0.397636D-01
   0    46    0.650926D-04    0.110095D+01   -0.334916D-01   -0.360467D-01
   0    47    0.697049D-04    0.109923D+01   -0.281801D-01   -0.315700D-01
   0    48    0.772619D-04    0.109725D+01    0.107787D-01   -0.263768D-01
   0    49    0.910446D-04    0.109504D+01   -0.260477D-01   -0.206097D-01
   0    50    0.128684D-03    0.109276D+01    0.760581D-01   -0.145960D-01
   0    51    0.224889D-03    0.109071D+01    0.323154D-01   -0.919000D-02
   0    52    0.383768D-03    0.108914D+01    0.523121D-01   -0.502797D-02
   0    53    0.543540D-03    0.108825D+01    0.178686D+00   -0.266778D-02
   0    54    0.608516D-03    0.108764D+01    0.643963D-01   -0.111784D-02
   0    55    0.561630D-03    0.108679D+01    0.305987D+00    0.121200D-02
   0    56    0.432022D-03    0.108582D+01    0.117774D+00    0.375244D-02
   0    57    0.269250D-03    0.108490D+01    0.445855D-01    0.618505D-02
   0    58    0.172552D-03    0.108401D+01    0.401776D-01    0.852649D-02
   0    59    0.132163D-03    0.108301D+01    0.721710D-01    0.111746D-01
   0    60    0.123767D-03    0.108182D+01    0.150642D-01    0.143129D-01
   0    61    0.122974D-03    0.108037D+01    0.549835D-01    0.181541D-01
   0    62    0.129069D-03    0.107872D+01   -0.373502D-01    0.224620D-01
   0    63    0.134074D-03    0.107695D+01    0.348444D-01    0.271126D-01
   0    64    0.145581D-03    0.107510D+01    0.443628D-02    0.319218D-01
   0    65    0.156597D-03    0.107333D+01   -0.589931D-01    0.365409D-01
   0    66    0.167745D-03    0.107168D+01    0.207720D-01    0.408163D-01
   0    67    0.178938D-03    0.107022D+01   -0.322602D-01    0.445807D-01
   0    68    0.184112D-03    0.106906D+01   -0.107069D+00    0.475653D-01
   0    69    0.188218D-03    0.106821D+01   -0.760325D-01    0.497199D-01
   0    70    0.188349D-03    0.106770D+01    0.946401D-02    0.510362D-01
   0    71    0.193046D-03    0.106739D+01   -0.539885D-01    0.518015D-01
   0    72    0.196035D-03    0.106715D+01    0.126392D+00    0.524299D-01
   0    73    0.199933D-03    0.106685D+01    0.408862D-01    0.531882D-01
   0    74    0.200262D-03    0.106648D+01   -0.628283D-01    0.541213D-01
   0    75    0.215690D-03    0.106605D+01   -0.149967D+00    0.552195D-01
   0    76    0.218975D-03    0.106558D+01    0.453950D-01    0.563977D-01
   0    77    0.228361D-03    0.106517D+01    0.322494D-02    0.574322D-01
   0    78    0.237662D-03    0.106497D+01    0.950806D-01    0.579362D-01
   0    79    0.239218D-03    0.106495D+01   -0.804554D-01    0.580040D-01
   0    80    0.251070D-03    0.106508D+01    0.492919D-01    0.576525D-01
   0    81    0.254742D-03    0.106532D+01   -0.177653D+00    0.570162D-01
   0    82    0.260126D-03    0.106564D+01    0.195850D+00    0.562316D-01
   0    83    0.272920D-03    0.106599D+01   -0.539814D-01    0.553473D-01
   0    84    0.279806D-03    0.106645D+01   -0.171197D+00    0.541747D-01
   0    85    0.285311D-03    0.106699D+01    0.127041D+00    0.528036D-01
   0    86    0.296398D-03    0.106769D+01   -0.133485D+00    0.510375D-01
   0    87    0.297700D-03    0.106855D+01    0.102367D+00    0.488275D-01
   0    88    0.292700D-03    0.106949D+01   -0.215635D-01    0.464190D-01
   0    89    0.299020D-03    0.107046D+01    0.103889D+00    0.438941D-01
   0    90    0.300870D-03    0.107145D+01   -0.160146D+00    0.413765D-01
   0    91    0.305739D-03    0.107259D+01   -0.144826D+00    0.384272D-01
   0    92    0.307159D-03    0.107391D+01   -0.372616D-01    0.349975D-01
   0    93    0.313430D-03    0.107547D+01   -0.758514D-02    0.309372D-01
   0    94    0.323429D-03    0.107718D+01   -0.106779D+00    0.264420D-01
   0    95    0.323757D-03    0.107895D+01    0.122092D+00    0.218167D-01
   0    96    0.331458D-03    0.108079D+01    0.127940D+00    0.169539D-01
   0    97    0.335135D-03    0.108251D+01    0.115771D+00    0.124210D-01
   0    98    0.340513D-03    0.108407D+01   -0.161335D-01    0.834068D-02
   0    99    0.340371D-03    0.108555D+01   -0.100841D-02    0.443499D-02
   0   100    0.339356D-03    0.108677D+01   -0.161015D+00    0.120044D-02
   0   101    0.332750D-03    0.108802D+01    0.186902D+00   -0.210162D-02
   0   102    0.329694D-03    0.108920D+01   -0.123648D-01   -0.524201D-02
   0   103    0.331383D-03    0.109040D+01   -0.147102D+00   -0.841347D-02
   0   104    0.330578D-03    0.109167D+01    0.853096D-01   -0.117381D-01
   0   105    0.339038D-03    0.109300D+01    0.395797D-01   -0.152660D-01
   0   106    0.341772D-03    0.109432D+01    0.158794D+00   -0.187251D-01
   0   107    0.341255D-03    0.109556D+01    0.130696D+00   -0.220028D-01
   0   108    0.338950D-03    0.109674D+01    0.110833D+00   -0.250699D-01
   0   109    0.346084D-03    0.109784D+01   -0.665573D-01   -0.279602D-01
   0   110    0.348055D-03    0.109890D+01   -0.394825D-01   -0.307644D-01
   0   111    0.343281D-03    0.109991D+01    0.368850D-01   -0.333279D-01
   0   112    0.350443D-03    0.110086D+01    0.169795D+00   -0.358161D-01
   0   113    0.348031D-03    0.110170D+01    0.841926D-01   -0.380220D-01
   0   114    0.343583D-03    0.110249D+01    0.660706D-01   -0.400514D-01
   0   115    0.355394D-03    0.110324D+01    0.133453D+00   -0.420155D-01
   0   116    0.349620D-03    0.110385D+01   -0.227369D-01   -0.435731D-01
   0   117    0.348872D-03    0.110446D+01    0.396775D-02   -0.450946D-01
   0   118    0.349496D-03    0.110506D+01    0.127711D+00   -0.466711D-01
   0   119    0.354078D-03    0.110566D+01    0.216232D+00   -0.482046D-01
   0   120    0.353340D-03    0.110618D+01   -0.191915D-01   -0.495256D-01
   0   121    0.357616D-03    0.110658D+01   -0.147748D-01   -0.505620D-01
   0   122    0.360856D-03    0.110704D+01    0.332789D-01   -0.517214D-01
   0   123    0.362490D-03    0.110736D+01   -0.130890D+00   -0.524893D-01
   0   124    0.364911D-03    0.110768D+01   -0.353706D-01   -0.533444D-01
   0   125    0.365825D-03    0.110796D+01    0.231398D+00   -0.540355D-01
   0   126    0.366504D-03    0.110820D+01    0.323259D-01   -0.546274D-01
   0   127    0.378460D-03    0.110845D+01    0.790055D-03   -0.553084D-01
   0   128    0.378193D-03    0.110854D+01   -0.713656D-02   -0.555008D-01
   0   129    0.381268D-03    0.110864D+01   -0.776765D-01   -0.557735D-01
   0   130    0.382107D-03    0.110879D+01   -0.150362D+00   -0.561590D-01
   0   131    0.390346D-03    0.110888D+01   -0.244412D+00   -0.563635D-01
   0   132    0.387941D-03    0.110901D+01    0.153668D-01   -0.566832D-01
   0   133    0.393744D-03    0.110901D+01    0.222670D+00   -0.566868D-01
   0   134    0.400016D-03    0.110898D+01   -0.942686D-01   -0.566537D-01
   0   135    0.406208D-03    0.110891D+01   -0.136300D+00   -0.564601D-01
   0   136    0.408882D-03    0.110885D+01   -0.917727D-01   -0.562818D-01
   0   137    0.407296D-03    0.110871D+01    0.212767D-02   -0.559141D-01
   0   138    0.412614D-03    0.110860D+01   -0.204060D+00   -0.556625D-01
   0   139    0.417623D-03    0.110854D+01    0.175161D+00   -0.555271D-01
   0   140    0.413863D-03    0.110839D+01    0.959485D-01   -0.550865D-01
   0   141    0.417428D-03    0.110814D+01    0.132637D+00   -0.545065D-01
   0   142    0.418934D-03    0.110794D+01   -0.240653D+00   -0.539902D-01
   0   143    0.418526D-03    0.110772D+01    0.126033D+00   -0.534601D-01
   0   144    0.421689D-03    0.110759D+01    0.520405D-01   -0.530764D-01
   0   145    0.435689D-03    0.110735D+01    0.689935D-01   -0.524915D-01
   0   146    0.438908D-03    0.110713D+01    0.195472D+00   -0.519022D-01
   0   147    0.441704D-03    0.110678D+01   -0.147642D+00   -0.510088D-01
   0   148    0.440479D-03    0.110643D+01    0.202626D-01   -0.501279D-01
   0   149    0.455184D-03    0.110616D+01   -0.243175D+00   -0.494676D-01
   0   150    0.450881D-03    0.110576D+01    0.117102D+00   -0.484414D-01
   0   151    0.455440D-03    0.110552D+01   -0.170379D-02   -0.478333D-01
   0   152    0.463984D-03    0.110524D+01    0.289528D+00   -0.470631D-01
   0   153    0.463368D-03    0.110502D+01   -0.454608D-01   -0.465622D-01
   0   154    0.482288D-03    0.110472D+01   -0.398145D-01   -0.457652D-01
   0   155    0.483746D-03    0.110435D+01    0.226833D+00   -0.448590D-01
   0   156    0.493517D-03    0.110388D+01    0.119708D+00   -0.436164D-01
   0   157    0.492880D-03    0.110349D+01    0.149959D+00   -0.426120D-01
   0   158    0.485727D-03    0.110302D+01    0.350363D-01   -0.413728D-01
   0   159    0.505519D-03    0.110262D+01   -0.760979D-01   -0.403332D-01
   0   160    0.508708D-03    0.110206D+01    0.185017D+00   -0.389051D-01
   0   161    0.508247D-03    0.110160D+01    0.365063D+00   -0.377073D-01
   0   162    0.516663D-03    0.110107D+01    0.247162D+00   -0.363573D-01
   0   163    0.525923D-03    0.110047D+01    0.177572D-01   -0.347958D-01
   0   164    0.536251D-03    0.109986D+01   -0.179225D+00   -0.331594D-01
   0   165    0.542627D-03    0.109927D+01    0.279105D+00   -0.316131D-01
   0   166    0.546572D-03    0.109870D+01    0.427950D-01   -0.301987D-01
   0   167    0.564953D-03    0.109809D+01   -0.457759D-01   -0.286027D-01
   0   168    0.569297D-03    0.109755D+01    0.455912D-01   -0.271922D-01
   0   169    0.578809D-03    0.109702D+01    0.744560D-01   -0.257443D-01
   0   170    0.583614D-03    0.109640D+01   -0.272274D+00   -0.241733D-01
   0   171    0.594461D-03    0.109577D+01   -0.244763D+00   -0.225137D-01
   0   172    0.610618D-03    0.109512D+01    0.176807D+00   -0.207559D-01
   0   173    0.629114D-03    0.109448D+01   -0.447609D+00   -0.190969D-01
   0   174    0.633701D-03    0.109380D+01    0.380036D+00   -0.173119D-01
   0   175    0.631914D-03    0.109313D+01    0.226274D+00   -0.155061D-01
   0   176    0.653719D-03    0.109256D+01   -0.284774D+00   -0.140037D-01
   0   177    0.673426D-03    0.109185D+01    0.349363D-01   -0.121257D-01
   0   178    0.678643D-03    0.109100D+01   -0.155166D-01   -0.993714D-02
   0   179    0.685167D-03    0.109031D+01    0.472970D+00   -0.813838D-02
   0   180    0.717322D-03    0.108960D+01   -0.535146D-01   -0.625678D-02
   0   181    0.727188D-03    0.108886D+01   -0.110055D+00   -0.425869D-02
   0   182    0.740850D-03    0.108806D+01   -0.325863D+00   -0.220582D-02
   0   183    0.759167D-03    0.108731D+01    0.393671D+00   -0.144581D-03
   0   184    0.762759D-03    0.108642D+01   -0.162479D+00    0.214073D-02
   0   185    0.789250D-03    0.108559D+01    0.392176D+00    0.434061D-02
   0   186    0.801330D-03    0.108458D+01    0.372439D+00    0.708490D-02
   0   187    0.826979D-03    0.108349D+01    0.277095D+00    0.993047D-02
   0   188    0.849996D-03    0.108256D+01    0.264272D+00    0.123461D-01
   0   189    0.866495D-03    0.108183D+01    0.446411D+00    0.142869D-01
   0   190    0.889862D-03    0.108091D+01    0.313418D-01    0.166469D-01
   0   191    0.918197D-03    0.107996D+01   -0.735673D+00    0.192240D-01
   0   192    0.930717D-03    0.107931D+01    0.115688D+00    0.209395D-01
   0   193    0.959703D-03    0.107846D+01   -0.350243D+00    0.230871D-01
   0   194    0.967529D-03    0.107763D+01   -0.290063D+00    0.253443D-01
   0   195    0.983511D-03    0.107660D+01   -0.386235D+00    0.280112D-01
   0   196    0.100917D-02    0.107563D+01    0.646887D+00    0.305898D-01
   0   197    0.105132D-02    0.107460D+01    0.340879D+00    0.332163D-01
   0   198    0.109733D-02    0.107342D+01   -0.157859D+00    0.363119D-01
   0   199    0.116527D-02    0.107222D+01   -0.489525D+00    0.394162D-01
   0   200    0.122131D-02    0.107119D+01   -0.210303D+00    0.421198D-01
   0   201    0.124841D-02    0.107015D+01    0.174021D+00    0.447134D-01
   0   202    0.129607D-02    0.106913D+01    0.123865D+00    0.473146D-01
   0   203    0.128379D-02    0.106834D+01    0.118025D+00    0.494055D-01
   0   204    0.135181D-02    0.106757D+01    0.640140D+00    0.513748D-01
   0   205    0.137988D-02    0.106707D+01   -0.848511D+00    0.527009D-01
   0   206    0.139375D-02    0.106667D+01    0.276987D+00    0.536393D-01
   0   207    0.146010D-02    0.106628D+01   -0.553194D+00    0.546255D-01
   0   208    0.147595D-02    0.106593D+01    0.434987D+00    0.554303D-01
   0   209    0.152811D-02    0.106551D+01   -0.830951D+00    0.564929D-01
   0   210    0.158284D-02    0.106512D+01   -0.407918D+00    0.575937D-01
   0   211    0.164376D-02    0.106491D+01   -0.578653D+00    0.581022D-01
   0   212    0.171682D-02    0.106452D+01    0.526714D-01    0.589761D-01
   0   213    0.184829D-02    0.106442D+01    0.216501D+00    0.594279D-01
   0   214    0.199902D-02    0.106440D+01    0.832020D+00    0.592944D-01
   0   215    0.212321D-02    0.106458D+01    0.348816D+00    0.589894D-01
   0   216    0.222728D-02    0.106507D+01    0.540677D+00    0.576313D-01
   0   217    0.226092D-02    0.106562D+01   -0.742981D+00    0.562524D-01
   0   218    0.226057D-02    0.106639D+01    0.629567D+00    0.541866D-01
   0   219    0.230315D-02    0.106747D+01    0.736193D+00    0.515317D-01
   0   220    0.229683D-02    0.106843D+01    0.636748D+00    0.490785D-01
   0   221    0.229431D-02    0.106935D+01    0.130539D+01    0.467366D-01
   0   222    0.232519D-02    0.107056D+01   -0.617333D+00    0.437672D-01
   0   223    0.235531D-02    0.107256D+01   -0.125140D+01    0.383815D-01
   0   224    0.241756D-02    0.107487D+01    0.138445D+01    0.325674D-01
   0   225    0.249587D-02    0.107677D+01    0.161709D+01    0.275308D-01
   0   226    0.259715D-02    0.107863D+01   -0.195129D+01    0.226775D-01
   0   227    0.261576D-02    0.108101D+01   -0.137091D+01    0.164341D-01
   0   228    0.259410D-02    0.108301D+01   -0.621951D+00    0.112119D-01
   0   229    0.264131D-02    0.108490D+01   -0.214064D+01    0.602596D-02
   0   230    0.269514D-02    0.108722D+01   -0.120678D+01   -0.214327D-03
   0   231    0.272973D-02    0.108931D+01    0.121720D+01   -0.563145D-02
   0   232    0.275588D-02    0.109145D+01   -0.122831D+01   -0.111491D-01
   0   233    0.274092D-02    0.109327D+01    0.136260D+01   -0.161487D-01
   0   234    0.279712D-02    0.109484D+01   -0.200217D+00   -0.200158D-01
   0   235    0.277927D-02    0.109620D+01    0.296950D+00   -0.237467D-01
   0   236    0.280961D-02    0.109738D+01   -0.110846D+01   -0.268894D-01
   0   237    0.280134D-02    0.109886D+01    0.924152D+00   -0.306466D-01
   0   238    0.286299D-02    0.110023D+01    0.156121D+01   -0.343883D-01
   0   239    0.287322D-02    0.110142D+01   -0.296291D+00   -0.371967D-01
   0   240    0.290348D-02    0.110226D+01   -0.161652D+01   -0.395888D-01
   0   241    0.289966D-02    0.110325D+01   -0.386931D+00   -0.420820D-01
   0   242    0.287932D-02    0.110385D+01    0.134532D+01   -0.436820D-01
   0   243    0.291261D-02    0.110415D+01   -0.210002D+00   -0.444160D-01
   0   244    0.294013D-02    0.110509D+01   -0.336100D+00   -0.464726D-01
   0   245    0.298382D-02    0.110637D+01   -0.210607D+00   -0.498309D-01
   0   246    0.304199D-02    0.110697D+01    0.856049D+00   -0.517432D-01
   0   247    0.306323D-02    0.110717D+01   -0.634628D+00   -0.519495D-01
   0   248    0.305528D-02    0.110716D+01   -0.773447D+00   -0.521923D-01
   0   249    0.305299D-02    0.110775D+01    0.190513D+01   -0.533442D-01
   0   250    0.311702D-02    0.110795D+01    0.166217D+01   -0.541118D-01
   0   251    0.311998D-02    0.110859D+01   -0.308925D+00   -0.555154D-01
   0   252    0.319317D-02    0.110893D+01   -0.230963D+00   -0.565843D-01
   0   253    0.321969D-02    0.110902D+01    0.761958D+00   -0.566319D-01
   0   254    0.329992D-02    0.110898D+01   -0.644787D+00   -0.566690D-01
   0   255    0.326013D-02    0.110855D+01   -0.983298D+00   -0.557311D-01
   0   256    0.338892D-02    0.110849D+01   -0.127519D+00   -0.554167D-01
   0   257    0.338350D-02    0.110818D+01    0.161314D+01   -0.545128D-01
   0   258    0.346335D-02    0.110811D+01    0.141592D+01   -0.546016D-01
   0   259    0.355446D-02    0.110812D+01   -0.296924D+01   -0.546712D-01
   0   260    0.352925D-02    0.110811D+01   -0.689912D+00   -0.542239D-01
   0   261    0.355293D-02    0.110791D+01   -0.360855D-01   -0.537513D-01
   0   262    0.360489D-02    0.110745D+01   -0.335074D+00   -0.525818D-01
   0   263    0.369493D-02    0.110657D+01   -0.539010D+00   -0.507340D-01
   0   264    0.369861D-02    0.110599D+01   -0.142277D+01   -0.487821D-01
   0   265    0.373395D-02    0.110575D+01   -0.585345D+00   -0.484602D-01
   0   266    0.386622D-02    0.110559D+01   -0.705747D+00   -0.481407D-01
   0   267    0.388460D-02    0.110490D+01    0.211794D+01   -0.463345D-01
   0   268    0.399201D-02    0.110429D+01   -0.827155D+00   -0.447073D-01
   0   269    0.407681D-02    0.110375D+01    0.996278D+00   -0.433318D-01
   0   270    0.416627D-02    0.110308D+01   -0.214945D+01   -0.413905D-01
   0   271    0.414520D-02    0.110194D+01    0.130222D+01   -0.388417D-01
   0   272    0.428358D-02    0.110077D+01   -0.160892D+01   -0.354695D-01
   0   273    0.433962D-02    0.110039D+01   -0.586840D+00   -0.345513D-01
   0   274    0.439026D-02    0.109902D+01   -0.183673D+01   -0.310976D-01
   0   275    0.449098D-02    0.109828D+01   -0.126944D+00   -0.287607D-01
   0   276    0.457202D-02    0.109744D+01    0.929825D+00   -0.271709D-01
   0   277    0.473005D-02    0.109690D+01   -0.102351D+01   -0.252514D-01
   0   278    0.486199D-02    0.109611D+01    0.922806D+00   -0.233897D-01
   0   279    0.486677D-02    0.109497D+01    0.150633D+01   -0.205973D-01
   0   280    0.503324D-02    0.109384D+01   -0.864679D+00   -0.172557D-01
   0   281    0.514944D-02    0.109284D+01    0.223433D+01   -0.148720D-01
   0   282    0.522983D-02    0.109223D+01    0.301027D+01   -0.129199D-01
   0   283    0.540506D-02    0.109115D+01    0.503853D-01   -0.102724D-01
   0   284    0.554026D-02    0.108964D+01    0.307301D+01   -0.607620D-02
   0   285    0.566776D-02    0.108755D+01   -0.185036D+01   -0.631202D-03
   0   286    0.590048D-02    0.108675D+01   -0.521289D+00    0.150552D-02
   0   287    0.610294D-02    0.108496D+01    0.268364D+01    0.655423D-02
   0   288    0.632920D-02    0.108293D+01   -0.972434D+00    0.114715D-01
   0   289    0.663100D-02    0.108138D+01   -0.888203D+00    0.153755D-01
   0   290    0.690725D-02    0.108016D+01    0.297550D+01    0.186566D-01
   0   291    0.728350D-02    0.107852D+01   -0.243459D+01    0.231657D-01
   0   292    0.762677D-02    0.107641D+01   -0.123515D+01    0.285653D-01
   0   293    0.793960D-02    0.107530D+01   -0.458838D+01    0.316378D-01
   0   294    0.839615D-02    0.107405D+01    0.247168D+01    0.345171D-01
   0   295    0.860725D-02    0.107211D+01    0.169869D+01    0.401602D-01
   0   296    0.905407D-02    0.107047D+01   -0.282435D+01    0.438984D-01
   0   297    0.939088D-02    0.106861D+01    0.394457D+01    0.487182D-01
   0   298    0.100828D-01    0.106741D+01   -0.725427D+01    0.520417D-01
   0   299    0.104829D-01    0.106646D+01   -0.745029D+01    0.546644D-01
   0   300    0.108366D-01    0.106491D+01   -0.706108D+01    0.582210D-01
   0   301    0.112726D-01    0.106512D+01    0.857009D+00    0.581544D-01
   0   302    0.117618D-01    0.106477D+01   -0.391351D+01    0.580590D-01
   0   303    0.121669D-01    0.106349D+01   -0.276392D+01    0.620627D-01
   0   304    0.127813D-01    0.106415D+01   -0.877870D+01    0.596876D-01
   0   305    0.133571D-01    0.106264D+01   -0.275017D+01    0.635578D-01
   0   306    0.140044D-01    0.106349D+01    0.149729D+01    0.619695D-01
   0   307    0.155615D-01    0.106423D+01   -0.247747D+01    0.597039D-01
   0   308    0.158149D-01    0.106403D+01   -0.100481D+02    0.596662D-01
   0   309    0.161640D-01    0.106484D+01   -0.457114D+01    0.590022D-01
   0   310    0.168093D-01    0.106576D+01    0.721256D+01    0.556059D-01
   0   311    0.175016D-01    0.106647D+01    0.907346D+01    0.532481D-01
   0   312    0.180282D-01    0.106885D+01    0.296028D+01    0.480709D-01
   0   313    0.186367D-01    0.107028D+01   -0.752001D+01    0.449094D-01
   0   314    0.189555D-01    0.107160D+01    0.617068D+01    0.403299D-01
   0   315    0.194867D-01    0.107506D+01   -0.111750D+02    0.330338D-01
   0   316    0.196788D-01    0.107747D+01    0.306155D+01    0.242228D-01
   0   317    0.201501D-01    0.108034D+01   -0.127107D+02    0.181026D-01
   0   318    0.203815D-01    0.108264D+01    0.872008D+01    0.119326D-01
   0   319    0.211705D-01    0.108395D+01   -0.317319D+01    0.799908D-02
   0   320    0.215869D-01    0.108719D+01   -0.445536D+00    0.624192D-03
   0   321    0.222162D-01    0.108946D+01    0.862654D+01   -0.559766D-02
   0   322    0.223127D-01    0.109291D+01    0.804099D+01   -0.155532D-01
   0   323    0.228661D-01    0.109433D+01   -0.132609D+02   -0.184497D-01
   0   324    0.232446D-01    0.109551D+01    0.232672D+01   -0.228733D-01
   0   325    0.231395D-01    0.109757D+01   -0.100224D+02   -0.285333D-01
   0   326    0.235910D-01    0.110105D+01    0.167584D+02   -0.351972D-01
   0   327    0.244116D-01    0.110195D+01   -0.510083D+01   -0.389285D-01
   0   328    0.244395D-01    0.110367D+01    0.658183D+01   -0.433509D-01
   0   329    0.251701D-01    0.110739D+01   -0.121212D+02   -0.521641D-01
   0   330    0.255942D-01    0.110703D+01   -0.793831D+01   -0.524303D-01
   0   331    0.259092D-01    0.110566D+01   -0.193603D+01   -0.496974D-01
   0   332    0.262673D-01    0.110501D+01    0.153388D+01   -0.471119D-01
   0   333    0.262910D-01    0.110700D+01    0.814614D+01   -0.499788D-01
   0   334    0.266428D-01    0.110869D+01    0.517359D+01   -0.564679D-01
   0   335    0.272494D-01    0.110826D+01   -0.667740D+01   -0.541957D-01
   0   336    0.280917D-01    0.110962D+01   -0.953167D+01   -0.590110D-01
   0   337    0.285607D-01    0.110908D+01    0.112730D+02   -0.581182D-01
   0   338    0.290952D-01    0.110854D+01    0.132166D+02   -0.564667D-01
   0   339    0.291075D-01    0.110816D+01    0.285654D+01   -0.558014D-01
   0   340    0.303435D-01    0.110926D+01    0.947867D+01   -0.563704D-01
   0   341    0.307715D-01    0.110704D+01   -0.533944D+01   -0.511831D-01
   0   342    0.313767D-01    0.110599D+01   -0.115904D+02   -0.498127D-01
   0   343    0.322821D-01    0.110682D+01    0.688655D+01   -0.500549D-01
   0   344    0.329634D-01    0.110527D+01    0.948867D+01   -0.476183D-01
   0   345    0.345402D-01    0.110360D+01   -0.960501D+01   -0.435223D-01
   0   346    0.361417D-01    0.109871D+01   -0.368796D+01   -0.313404D-01
   0   347    0.379017D-01    0.110090D+01   -0.373063D+01   -0.344102D-01
   0   348    0.392016D-01    0.109740D+01   -0.575822D+01   -0.289091D-01
   0   349    0.413503D-01    0.109614D+01   -0.109715D+02   -0.235344D-01
   0   350    0.438842D-01    0.109176D+01    0.114687D+02   -0.112485D-01
   0   351    0.466250D-01    0.108896D+01   -0.178764D+02   -0.642675D-02
   0   352    0.501072D-01    0.108656D+01   -0.312559D-01    0.322618D-02
   0   353    0.536907D-01    0.108575D+01    0.208963D+02    0.584332D-02
   0   354    0.584995D-01    0.108161D+01    0.622067D+01    0.175935D-01
   0   355    0.638960D-01    0.108249D+01   -0.328760D+02    0.128012D-01
   0   356    0.701154D-01    0.107545D+01    0.124243D+02    0.310866D-01
   0   357    0.787570D-01    0.107532D+01   -0.248120D+02    0.289660D-01
   0   358    0.872601D-01    0.107433D+01   -0.236334D+01    0.368844D-01
   0   359    0.974986D-01    0.107371D+01   -0.360306D+02    0.343892D-01
   0   360    0.106354D+00    0.107218D+01    0.518648D+02    0.378701D-01
   0   361    0.119672D+00    0.107936D+01   -0.818147D+02    0.208260D-01
   0   362    0.132905D+00    0.107817D+01    0.438374D+02    0.208035D-01
   0   363    0.142819D+00    0.108324D+01    0.471580D+02    0.143858D-01
   0   364    0.152852D+00    0.108743D+01   -0.216803D+02   -0.421538D-02
   0   365    0.166379D+00    0.108798D+01    0.500625D+01   -0.289490D-02
   0   366    0.178095D+00    0.109592D+01   -0.106667D+03   -0.243227D-01
   0   367    0.190733D+00    0.109958D+01   -0.167829D+01   -0.323044D-01
   0   368    0.208027D+00    0.110223D+01    0.218030D+02   -0.418391D-01
   0   369    0.221881D+00    0.111259D+01   -0.105146D+03   -0.631425D-01
   0   370    0.241788D+00    0.111544D+01   -0.157316D+02   -0.738252D-01
   0   371    0.263940D+00    0.110897D+01   -0.136286D+03   -0.564360D-01
   0   372    0.274684D+00    0.106757D+01   -0.341520D+02    0.563106D-01
   0   373    0.184944D+00    0.923510D+00    0.292554D+03    0.271570D+00
   0   374    0.643910D-01    0.585358D+00    0.748821D+02    0.363625D+00
   0   375    0.173898D-01    0.302242D+00    0.208436D+02    0.381926D+00
   0   376    0.414457D-02    0.140626D+00    0.974287D+01    0.387536D+00
   0   377    0.969994D-03    0.618902D-01    0.178091D+01    0.389640D+00
   0   378    0.216784D-03    0.263733D-01    0.474546D+00    0.390487D+00
   0   379    0.484075D-04    0.110175D-01    0.806788D-01    0.390837D+00
   0   380    0.100451D-04    0.454301D-02    0.173948D-01    0.390981D+00
   0   381    0.208997D-05    0.185661D-02    0.522885D-02    0.391040D+00
   0   382    0.435644D-06    0.754011D-03    0.110175D-02    0.391065D+00
   0   383    0.901866D-07    0.304838D-03    0.167926D-03    0.391074D+00
   0   384    0.183184D-07    0.122831D-03    0.526586D-04    0.391078D+00
   0   385    0.379200D-08    0.493676D-04    0.893077D-05    0.391080D+00
   0   386    0.776174D-09    0.198021D-04    0.180192D-05    0.391081D+00
   0   387    0.157608D-09    0.793022D-05    0.447342D-06    0.391081D+00
   0   388    0.314809D-10    0.317166D-05    0.644702D-07    0.391081D+00
   0   389    0.637785D-11    0.126708D-05    0.170000D-07    0.391081D+00
   0   390    0.130018D-11    0.505717D-06    0.253242D-08    0.391081D+00
   0   391    0.259085D-12    0.201675D-06    0.700723D-09    0.391081D+00
   0   392    0.525593D-13    0.803680D-07    0.922074D-10    0.391081D+00
   0   393    0.102959D-13    0.320065D-07    0.188783D-10    0.391081D+00
   0   394    0.205796D-14    0.127393D-07    0.440252D-11    0.391081D+00
   0   395    0.407468D-15    0.506771D-08    0.915814D-12    0.391081D+00
   0   396    0.816127D-16    0.201418D-08    0.126035D-12    0.391081D+00
   0   397    0.158673D-16    0.798014D-09    0.282935D-13    0.391081D+00