variables =  "IG"  "JG"  "PHI"  "Temp."  "Latent_heat"  "mm"
ZONE  I=  401  J=  101
   0     0    0.100000D+01    0.899620D+00    0.000000D+00    0.285856D+00
   0     1    0.100000D+01    0.899620D+00    0.000000D+00    0.285856D+00
   0     2    0.100000D+01    0.900562D+00    0.000000D+00    0.285303D+00
   0     3    0.100000D+01    0.902436D+00    0.000000D+00    0.284190D+00
   0     4    0.100000D+01    0.905224D+00    0.000000D+00    0.282500D+00
   0     5    0.100000D+01    0.908901D+00    0.000000D+00    0.280211D+00
   0     6    0.100000D+01    0.913430D+00    0.000000D+00    0.277289D+00
   0     7    0.100000D+01    0.918770D+00    0.000000D+00    0.273695D+00
   0     8    0.100000D+01    0.924870D+00    0.000000D+00    0.269378D+00
   0     9    0.100000D+01    0.931672D+00    0.000000D+00    0.264277D+00
   0    10    0.100000D+01    0.939114D+00    0.000000D+00    0.258323D+00
   0    11    0.100000D+01    0.947126D+00    0.000000D+00    0.251435D+00
   0    12    0.100000D+01    0.955636D+00    0.000000D+00    0.243526D+00
   0    13    0.100000D+01    0.964565D+00    0.000000D+00    0.234498D+00
   0    14    0.100000D+01    0.973834D+00    0.000000D+00    0.224252D+00
   0    15    0.100000D+01    0.983362D+00    0.000000D+00    0.212692D+00
   0    16    0.100000D+01    0.993063D+00    0.000000D+00    0.199735D+00
   0    17    0.100000D+01    0.100286D+01    0.000000D+00    0.185321D+00
   0    18    0.100000D+01    0.101265D+01    0.000000D+00    0.169436D+00
   0    19    0.100000D+01    0.102238D+01    0.000000D+00    0.152128D+00
   0    20    0.100000D+01    0.103195D+01    0.000000D+00    0.133527D+00
   0    21    0.100000D+01    0.104129D+01    0.291706D-10    0.113865D+00
   0    22    0.100000D+01    0.105033D+01   -0.102097D-09    0.934703D-01
   0    23    0.100000D+01    0.105900D+01    0.310667D-08    0.727608D-01
   0    24    0.100000D+01    0.106723D+01   -0.116682D-09    0.522074D-01
   0    25    0.100000D+01    0.107496D+01   -0.238586D-06    0.322910D-01
   0    26    0.100000D+01    0.108214D+01   -0.348418D-05    0.134555D-01
   0    27    0.100000D+01    0.108872D+01   -0.105033D-05   -0.392784D-02
   0    28    0.100000D+01    0.109465D+01    0.104425D-03   -0.195804D-01
   0    29    0.999997D+00    0.109990D+01    0.186493D-02   -0.333180D-01
   0    30    0.999981D+00    0.110443D+01   -0.774733D-02   -0.450402D-01
   0    31    0.999865D+00    0.110822D+01    0.111833D-01   -0.547132D-01
   0    32    0.999034D+00    0.111125D+01    0.542201D+00   -0.623227D-01
   0    33    0.993221D+00    0.111361D+01    0.260382D+01   -0.680801D-01
   0    34    0.953167D+00    0.111505D+01    0.833507D+01   -0.720815D-01
   0    35    0.712935D+00    0.111267D+01    0.136021D+03   -0.666867D-01
   0    36    0.112655D+00    0.111324D+01   -0.462850D+01   -0.674843D-01
   0    37    0.144836D-01    0.110967D+01    0.599351D+01   -0.584821D-01
   0    38    0.210868D-02    0.110579D+01   -0.166423D+00   -0.485501D-01
   0    39    0.485653D-03    0.110237D+01    0.278136D+00   -0.397129D-01
   0    40    0.293342D-03    0.110022D+01   -0.789418D-01   -0.341437D-01
   0    41    0.332846D-03    0.109927D+01    0.703915D-02   -0.316997D-01
   0    42    0.416394D-03    0.109894D+01   -0.149739D+00   -0.308121D-01
   0    43    0.489783D-03    0.109831D+01   -0.241627D+00   -0.291949D-01
   0    44    0.554348D-03    0.109704D+01   -0.716557D-01   -0.258739D-01
   0    45    0.638948D-03    0.109479D+01    0.170933D+00   -0.198980D-01
   0    46    0.847066D-03    0.109162D+01   -0.271408D+00   -0.115480D-01
   0    47    0.129065D-02    0.108853D+01   -0.810310D-01   -0.335608D-02
   0    48    0.218039D-02    0.108717D+01    0.806423D-01    0.164954D-03
   0    49    0.318928D-02    0.108879D+01    0.145230D+01   -0.405831D-02
   0    50    0.367089D-02    0.109186D+01   -0.907306D+00   -0.120106D-01
   0    51    0.346140D-02    0.109399D+01   -0.117614D+01   -0.180952D-01
   0    52    0.307464D-02    0.109401D+01    0.371616D+00   -0.178753D-01
   0    53    0.262117D-02    0.109233D+01    0.395978D+00   -0.134471D-01
   0    54    0.236001D-02    0.109026D+01   -0.479280D-01   -0.792442D-02
   0    55    0.238205D-02    0.108949D+01   -0.632648D+00   -0.595575D-02
   0    56    0.253402D-02    0.109015D+01   -0.678021D+00   -0.789261D-02
   0    57    0.267928D-02    0.109164D+01    0.931450D+00   -0.116034D-01
   0    58    0.282441D-02    0.109400D+01   -0.690612D+00   -0.179847D-01
   0    59    0.287138D-02    0.109630D+01   -0.163488D+01   -0.239867D-01
   0    60    0.286995D-02    0.109847D+01   -0.163619D+00   -0.295778D-01
   0    61    0.290349D-02    0.110025D+01   -0.623748D+00   -0.341175D-01
   0    62    0.293632D-02    0.110151D+01   -0.328057D+00   -0.375971D-01
   0    63    0.293630D-02    0.110274D+01   -0.469404D+00   -0.409300D-01
   0    64    0.294474D-02    0.110403D+01    0.119578D+01   -0.437784D-01
   0    65    0.296804D-02    0.110483D+01    0.385584D+00   -0.462245D-01
   0    66    0.300792D-02    0.110573D+01   -0.207559D+01   -0.483530D-01
   0    67    0.300260D-02    0.110656D+01    0.821850D+00   -0.502918D-01
   0    68    0.304085D-02    0.110685D+01   -0.138894D+01   -0.512088D-01
   0    69    0.304909D-02    0.110714D+01    0.101272D+01   -0.519871D-01
   0    70    0.309018D-02    0.110767D+01    0.603790D-02   -0.534093D-01
   0    71    0.313403D-02    0.110779D+01   -0.119965D+01   -0.535675D-01
   0    72    0.313648D-02    0.110817D+01   -0.139630D+01   -0.544120D-01
   0    73    0.320814D-02    0.110839D+01    0.156593D+01   -0.549282D-01
   0    74    0.326094D-02    0.110855D+01    0.157810D+01   -0.556791D-01
   0    75    0.322180D-02    0.110844D+01   -0.131586D+01   -0.549827D-01
   0    76    0.322831D-02    0.110839D+01    0.812305D+00   -0.548361D-01
   0    77    0.335936D-02    0.110874D+01   -0.129428D+01   -0.558517D-01
   0    78    0.339912D-02    0.110863D+01   -0.155886D+01   -0.559736D-01
   0    79    0.341648D-02    0.110880D+01    0.144787D+00   -0.561011D-01
   0    80    0.344913D-02    0.110833D+01   -0.344670D+00   -0.550426D-01
   0    81    0.357232D-02    0.110790D+01   -0.295857D+00   -0.538275D-01
   0    82    0.359635D-02    0.110732D+01    0.951758D+00   -0.525664D-01
   0    83    0.364845D-02    0.110692D+01    0.123804D+01   -0.511559D-01
   0    84    0.371708D-02    0.110621D+01   -0.219645D+01   -0.496174D-01
   0    85    0.373630D-02    0.110559D+01   -0.974546D+00   -0.479658D-01
   0    86    0.377451D-02    0.110536D+01    0.216590D+01   -0.471896D-01
   0    87    0.386346D-02    0.110485D+01    0.570206D+00   -0.460869D-01
   0    88    0.401777D-02    0.110411D+01    0.132928D+01   -0.441834D-01
   0    89    0.405348D-02    0.110353D+01   -0.375874D+00   -0.430024D-01
   0    90    0.409269D-02    0.110292D+01   -0.639509D+00   -0.410546D-01
   0    91    0.416202D-02    0.110183D+01    0.158865D+01   -0.383573D-01
   0    92    0.426232D-02    0.110133D+01   -0.101281D+01   -0.371862D-01
   0    93    0.432102D-02    0.110016D+01   -0.158632D+01   -0.338459D-01
   0    94    0.444288D-02    0.109970D+01   -0.385664D+00   -0.325261D-01
   0    95    0.449984D-02    0.109942D+01    0.202414D+01   -0.317850D-01
   0    96    0.462438D-02    0.109821D+01    0.189108D+01   -0.288915D-01
   0    97    0.479171D-02    0.109712D+01   -0.140651D+01   -0.259389D-01
   0    98    0.473449D-02    0.109524D+01   -0.183792D+01   -0.211326D-01
   0    99    0.489663D-02    0.109420D+01   -0.193669D+01   -0.181931D-01
   0   100    0.503768D-02    0.109297D+01    0.262209D+01   -0.151651D-01
   0   101    0.525213D-02    0.109212D+01   -0.326103D+00   -0.126106D-01
   0   102    0.539249D-02    0.109024D+01   -0.699585D+00   -0.781974D-02
   0   103    0.558050D-02    0.108878D+01   -0.322163D+01   -0.388363D-02
   0   104    0.576729D-02    0.108761D+01    0.538856D+00   -0.128816D-02
   0   105    0.599593D-02    0.108660D+01   -0.424206D+01    0.201885D-02
   0   106    0.613707D-02    0.108491D+01   -0.710579D+00    0.634582D-02
   0   107    0.643006D-02    0.108298D+01   -0.681606D+00    0.112942D-01
   0   108    0.671023D-02    0.108162D+01    0.115697D+00    0.146452D-01
   0   109    0.706277D-02    0.108002D+01   -0.329982D+01    0.186008D-01
   0   110    0.713724D-02    0.107809D+01    0.167515D+01    0.239153D-01
   0   111    0.758539D-02    0.107596D+01   -0.260140D+00    0.302207D-01
   0   112    0.806796D-02    0.107417D+01   -0.418973D+01    0.346537D-01
   0   113    0.844031D-02    0.107236D+01    0.333790D+01    0.391627D-01
   0   114    0.869886D-02    0.107135D+01    0.400522D+01    0.415804D-01
   0   115    0.906040D-02    0.107016D+01   -0.231330D+01    0.446838D-01
   0   116    0.924246D-02    0.106885D+01    0.194279D+01    0.486301D-01
   0   117    0.973375D-02    0.106814D+01   -0.174331D+01    0.503943D-01
   0   118    0.102607D-01    0.106746D+01   -0.546179D+00    0.518481D-01
   0   119    0.113097D-01    0.106563D+01   -0.547896D+01    0.568282D-01
   0   120    0.122253D-01    0.106318D+01   -0.471414D+01    0.622458D-01
   0   121    0.128388D-01    0.106318D+01    0.724811D+01    0.627690D-01
   0   122    0.140851D-01    0.106270D+01    0.346872D+01    0.634188D-01
   0   123    0.147125D-01    0.106416D+01    0.227566D+01    0.597320D-01
   0   124    0.155237D-01    0.106493D+01    0.789321D+01    0.577592D-01
   0   125    0.165435D-01    0.106721D+01    0.558401D+01    0.519521D-01
   0   126    0.172428D-01    0.106796D+01   -0.857521D+01    0.502337D-01
   0   127    0.181213D-01    0.106945D+01    0.700140D+00    0.469789D-01
   0   128    0.185015D-01    0.107122D+01    0.112193D+02    0.429677D-01
   0   129    0.193576D-01    0.107290D+01    0.116713D+02    0.385366D-01
   0   130    0.193615D-01    0.107420D+01   -0.573312D+01    0.333400D-01
   0   131    0.196555D-01    0.107626D+01   -0.104407D+02    0.280896D-01
   0   132    0.202522D-01    0.107944D+01   -0.314886D-01    0.205429D-01
   0   133    0.206880D-01    0.108217D+01    0.108572D+02    0.144771D-01
   0   134    0.214380D-01    0.108562D+01    0.276929D+01    0.457088D-02
   0   135    0.220721D-01    0.108831D+01   -0.554511D+01   -0.255478D-02
   0   136    0.223250D-01    0.109303D+01   -0.494702D+00   -0.142112D-01
   0   137    0.226770D-01    0.109299D+01    0.936828D+01   -0.163901D-01
   0   138    0.231047D-01    0.109572D+01   -0.266395D+01   -0.214339D-01
   0   139    0.235900D-01    0.109754D+01   -0.101118D+01   -0.265830D-01
   0   140    0.239287D-01    0.110024D+01    0.156132D+02   -0.332018D-01
   0   141    0.243686D-01    0.110096D+01   -0.141104D+02   -0.372308D-01
   0   142    0.247850D-01    0.110346D+01    0.762773D+01   -0.411576D-01
   0   143    0.250360D-01    0.110416D+01    0.144870D+02   -0.440438D-01
   0   144    0.252904D-01    0.110581D+01   -0.252784D+01   -0.487956D-01
   0   145    0.255615D-01    0.110594D+01   -0.145866D+01   -0.484263D-01
   0   146    0.262826D-01    0.110621D+01   -0.153771D+02   -0.501176D-01
   0   147    0.263747D-01    0.110733D+01    0.734090D+01   -0.524413D-01
   0   148    0.269968D-01    0.110804D+01   -0.467952D+01   -0.537314D-01
   0   149    0.273978D-01    0.110889D+01   -0.621649D+01   -0.560030D-01
   0   150    0.284624D-01    0.110909D+01    0.111489D+02   -0.569094D-01
   0   151    0.289486D-01    0.110890D+01   -0.195757D+02   -0.556398D-01
   0   152    0.295749D-01    0.110951D+01    0.883575D+01   -0.574931D-01
   0   153    0.303017D-01    0.110784D+01   -0.873336D+01   -0.540552D-01
   0   154    0.311641D-01    0.110758D+01    0.948654D+00   -0.536875D-01
   0   155    0.316525D-01    0.110876D+01    0.207195D+01   -0.556653D-01
   0   156    0.321472D-01    0.110599D+01    0.113825D+02   -0.476110D-01
   0   157    0.339086D-01    0.110515D+01    0.110904D+02   -0.483389D-01
   0   158    0.345285D-01    0.110423D+01   -0.942597D+01   -0.455481D-01
   0   159    0.356682D-01    0.109958D+01    0.127349D+02   -0.335679D-01
   0   160    0.370974D-01    0.110124D+01    0.863339D+01   -0.357679D-01
   0   161    0.392665D-01    0.109853D+01   -0.226880D+02   -0.303497D-01
   0   162    0.403397D-01    0.109740D+01    0.152457D+02   -0.275768D-01
   0   163    0.422767D-01    0.109429D+01   -0.283448D+02   -0.187755D-01
   0   164    0.440429D-01    0.109248D+01   -0.149335D+01   -0.159784D-01
   0   165    0.475055D-01    0.109222D+01   -0.139583D+02   -0.124917D-01
   0   166    0.502012D-01    0.108811D+01    0.200873D+02   -0.955528D-03
   0   167    0.543895D-01    0.108506D+01    0.270993D+02    0.547516D-02
   0   168    0.590661D-01    0.108260D+01   -0.304503D+02    0.104953D-01
   0   169    0.648816D-01    0.107956D+01   -0.348823D+02    0.212298D-01
   0   170    0.717113D-01    0.107691D+01   -0.327873D+02    0.243340D-01
   0   171    0.796325D-01    0.107619D+01    0.184161D+02    0.308931D-01
   0   172    0.895642D-01    0.107115D+01   -0.240731D+02    0.394495D-01
   0   173    0.971474D-01    0.107336D+01    0.291500D+02    0.376262D-01
   0   174    0.107603D+00    0.107342D+01   -0.406924D+02    0.355088D-01
   0   175    0.117703D+00    0.107770D+01    0.505745D+02    0.272581D-01
   0   176    0.131560D+00    0.107915D+01   -0.334244D+02    0.203925D-01
   0   177    0.144509D+00    0.108030D+01   -0.627342D+02    0.223222D-01
   0   178    0.151540D+00    0.108779D+01    0.451373D+02   -0.876575D-03
   0   179    0.163945D+00    0.108576D+01    0.517708D+02    0.242724D-02
   0   180    0.180070D+00    0.109432D+01   -0.253805D+02   -0.190382D-01
   0   181    0.193427D+00    0.110138D+01   -0.956421D+02   -0.389643D-01
   0   182    0.213665D+00    0.110741D+01   -0.514247D+02   -0.530388D-01
   0   183    0.228228D+00    0.111188D+01   -0.481829D+02   -0.676171D-01
   0   184    0.245890D+00    0.111068D+01   -0.972884D+02   -0.604175D-01
   0   185    0.282739D+00    0.109360D+01   -0.351755D+02   -0.197448D-01
   0   186    0.262413D+00    0.102538D+01    0.306268D+02    0.149575D+00
   0   187    0.125929D+00    0.781616D+00    0.246884D+03    0.332622D+00
   0   188    0.382849D-01    0.447732D+00    0.709880D+02    0.374521D+00
   0   189    0.981044D-02    0.219157D+00    0.233964D+02    0.385066D+00
   0   190    0.228473D-02    0.990446D-01    0.514751D+01    0.388688D+00
   0   191    0.508003D-03    0.428445D-01    0.129259D+01    0.390101D+00
   0   192    0.112571D-03    0.180440D-01    0.265937D+00    0.390678D+00
   0   193    0.245244D-04    0.747568D-02    0.582233D-01    0.390916D+00
   0   194    0.516864D-05    0.306442D-02    0.116673D-01    0.391014D+00
   0   195    0.106908D-05    0.124706D-02    0.167792D-02    0.391054D+00
   0   196    0.221936D-06    0.504862D-03    0.359928D-03    0.391070D+00
   0   197    0.462836D-07    0.203593D-03    0.711291D-04    0.391077D+00
   0   198    0.943983D-08    0.818511D-04    0.264029D-04    0.391079D+00
   0   199    0.190288D-08    0.328259D-04    0.470597D-05    0.391080D+00
   0   200    0.384731D-09    0.131379D-04    0.769411D-06    0.391081D+00
   0   201    0.794501D-10    0.524918D-05    0.139686D-06    0.391081D+00
   0   202    0.158022D-10    0.209425D-05    0.291069D-07    0.391081D+00
   0   203    0.319108D-11    0.834495D-06    0.797722D-08    0.391081D+00
   0   204    0.629347D-12    0.332162D-06    0.108576D-08    0.391081D+00
   0   205    0.123959D-12    0.132088D-06    0.288514D-09    0.391081D+00
   0   206    0.251304D-13    0.524823D-07    0.380948D-10    0.391081D+00
   0   207    0.501169D-14    0.208371D-07    0.130843D-10    0.391081D+00
   0   208    0.982715D-15    0.826748D-08    0.203814D-11    0.391081D+00
   0   209    0.195972D-15    0.327830D-08    0.433332D-12    0.391081D+00
   0   210    0.389817D-16    0.129924D-08    0.656282D-13    0.391081D+00
   0   211    0.771556D-17    0.514660D-09    0.123418D-13    0.391081D+00
   0   212    0.155347D-17    0.203781D-09    0.411896D-14    0.391081D+00
   0   213    0.304114D-18    0.806565D-10    0.821857D-15    0.391081D+00
   0   214    0.601791D-19    0.319129D-10    0.110549D-15    0.391081D+00
   0   215    0.118526D-19    0.126230D-10    0.208189D-16    0.391081D+00
   0   216    0.235797D-20    0.499168D-11    0.668144D-17    0.391081D+00
   0   217    0.464356D-21    0.197349D-11    0.943836D-18    0.391081D+00
   0   218    0.928458D-22    0.780093D-12    0.176639D-18    0.391081D+00
   0   219    0.179785D-22    0.308314D-12    0.335206D-19    0.391081D+00
   0   220    0.357989D-23    0.121841D-12    0.978741D-20    0.391081D+00
   0   221    0.697486D-24    0.481464D-13    0.192146D-20    0.391081D+00
   0   222    0.138078D-24    0.190246D-13    0.385405D-21    0.391081D+00
   0   223    0.269400D-25    0.751737D-14    0.711088D-22    0.391081D+00
   0   224    0.526096D-26    0.297048D-14    0.832822D-23    0.391081D+00
   0   225    0.102282D-26    0.117384D-14    0.252688D-23    0.391081D+00
   0   226    0.198940D-27    0.463907D-15    0.573746D-24    0.391081D+00
   0   227    0.390387D-28    0.183357D-15    0.946022D-25    0.391081D+00
   0   228    0.768281D-29    0.724810D-16    0.179738D-25    0.391081D+00
   0   229    0.150519D-29    0.286562D-16    0.389860D-26    0.391081D+00
   0   230    0.297028D-30    0.113316D-16    0.775010D-27    0.391081D+00
   0   231    0.572134D-31    0.448176D-17    0.132901D-27    0.391081D+00
   0   232    0.112354D-31    0.177297D-17    0.219061D-28    0.391081D+00
   0   233    0.221250D-32    0.701542D-18    0.443528D-29    0.391081D+00
   0   234    0.430433D-33    0.277660D-18    0.923471D-30    0.391081D+00
   0   235    0.831222D-34    0.109922D-18    0.226275D-30    0.391081D+00
   0   236    0.163538D-34    0.435283D-19    0.351392D-31    0.391081D+00
   0   237    0.314660D-35    0.172417D-19    0.832354D-32    0.391081D+00
   0   238    0.613618D-36    0.683141D-20    0.108642D-32    0.391081D+00
   0   239    0.120240D-36    0.270749D-20    0.281410D-33    0.391081D+00
   0   240    0.234810D-37    0.107337D-20    0.609230D-34    0.391081D+00
   0   241    0.462396D-38    0.425658D-21    0.763014D-35    0.391081D+00
   0   242    0.908597D-39    0.168850D-21    0.176850D-35    0.391081D+00
   0   243    0.174797D-39    0.669991D-22    0.462240D-36    0.391081D+00
   0   244    0.340998D-40    0.265930D-22    0.698393D-37    0.391081D+00
   0   245    0.661632D-41    0.105583D-22    0.112589D-37    0.391081D+00
   0   246    0.129171D-41    0.419320D-23    0.265916D-38    0.391081D+00
   0   247    0.253795D-42    0.166580D-23    0.461705D-39    0.391081D+00
   0   248    0.494076D-43    0.661954D-24    0.133922D-39    0.391081D+00
   0   249    0.972381D-44    0.263120D-24    0.211882D-40    0.391081D+00
   0   250    0.192722D-44    0.104617D-24    0.507460D-41    0.391081D+00
   0   251    0.370149D-45    0.416074D-25    0.102939D-41    0.391081D+00
   0   252    0.721134D-46    0.165522D-25    0.116929D-42    0.391081D+00
   0   253    0.141416D-46    0.658656D-26    0.372399D-43    0.391081D+00
   0   254    0.273251D-47    0.262165D-26    0.588411D-44    0.391081D+00
   0   255    0.537299D-48    0.104377D-26    0.944985D-45    0.391081D+00
   0   256    0.103469D-48    0.415663D-27    0.242426D-45    0.391081D+00
   0   257    0.202238D-49    0.165572D-27    0.350588D-46    0.391081D+00
   0   258    0.398472D-50    0.659689D-28    0.816399D-47    0.391081D+00
   0   259    0.773729D-51    0.262903D-28    0.192484D-47    0.391081D+00
   0   260    0.150386D-51    0.104798D-28    0.241910D-48    0.391081D+00
   0   261    0.290639D-52    0.417839D-29    0.850238D-49    0.391081D+00
   0   262    0.582795D-53    0.166634D-29    0.115914D-49    0.391081D+00
   0   263    0.114565D-53    0.664678D-30    0.274837D-50    0.391081D+00
   0   264    0.217634D-54    0.265187D-30    0.553065D-51    0.391081D+00
   0   265    0.423504D-55    0.105824D-30    0.853571D-52    0.391081D+00
   0   266    0.828894D-56    0.422380D-31    0.159515D-52    0.391081D+00
   0   267    0.164853D-56    0.168619D-31    0.246225D-53    0.391081D+00
   0   268    0.319765D-57    0.673278D-32    0.860100D-54    0.391081D+00
   0   269    0.619294D-58    0.268882D-32    0.166352D-54    0.391081D+00
   0   270    0.119487D-58    0.107400D-32    0.295815D-55    0.391081D+00
   0   271    0.228600D-59    0.429067D-33    0.677658D-56    0.391081D+00
   0   272    0.445571D-60    0.171441D-33    0.904004D-57    0.391081D+00
   0   273    0.866924D-61    0.685132D-34    0.237156D-57    0.391081D+00
   0   274    0.167936D-61    0.273841D-34    0.276754D-58    0.391081D+00
   0   275    0.322161D-62    0.109468D-34    0.908114D-59    0.391081D+00
   0   276    0.626590D-63    0.437656D-35    0.178821D-59    0.391081D+00
   0   277    0.119751D-63    0.174999D-35    0.254387D-60    0.391081D+00
   0   278    0.233928D-64    0.699828D-36    0.643774D-61    0.391081D+00
   0   279    0.454212D-65    0.279896D-36    0.116414D-61    0.391081D+00
   0   280    0.889698D-66    0.111956D-36    0.204713D-62    0.391081D+00
   0   281    0.172114D-66    0.447860D-37    0.297085D-63    0.391081D+00
   0   282    0.336494D-67    0.179174D-37    0.778770D-64    0.391081D+00
   0   283    0.651642D-68    0.716877D-38    0.143630D-64    0.391081D+00
   0   284    0.124919D-68    0.286844D-38    0.263180D-65    0.391081D+00
   0   285    0.242825D-69    0.114783D-38    0.609829D-66    0.391081D+00
   0   286    0.474910D-70    0.459336D-39    0.121182D-66    0.391081D+00
   0   287    0.911521D-71    0.183826D-39    0.192460D-67    0.391081D+00
   0   288    0.178565D-71    0.735697D-40    0.397853D-68    0.391081D+00
   0   289    0.349871D-72    0.294446D-40    0.996832D-69    0.391081D+00
   0   290    0.688494D-73    0.117848D-40    0.117192D-69    0.391081D+00
   0   291    0.134916D-73    0.471679D-41    0.348221D-70    0.391081D+00
   0   292    0.259601D-74    0.188787D-41    0.756728D-71    0.391081D+00
   0   293    0.509689D-75    0.755609D-42    0.882992D-72    0.391081D+00
   0   294    0.100936D-75    0.302424D-42    0.269826D-72    0.391081D+00
   0   295    0.196253D-76    0.121040D-42    0.312652D-73    0.391081D+00
   0   296    0.380157D-77    0.484425D-43    0.884443D-74    0.391081D+00
   0   297    0.744043D-78    0.193869D-43    0.176468D-74    0.391081D+00
   0   298    0.147433D-78    0.775841D-44    0.403594D-75    0.391081D+00
   0   299    0.282890D-79    0.310465D-44    0.641592D-76    0.391081D+00
   0   300    0.554658D-80    0.124230D-44    0.136856D-76    0.391081D+00
   0   301    0.106994D-80    0.497060D-45    0.296624D-77    0.391081D+00
   0   302    0.201682D-81    0.198865D-45    0.492149D-78    0.391081D+00
   0   303    0.396463D-82    0.795555D-46    0.735076D-79    0.391081D+00
   0   304    0.773708D-83    0.318231D-46    0.154737D-79    0.391081D+00
   0   305    0.150867D-83    0.127283D-46    0.243918D-80    0.391081D+00
   0   306    0.294455D-84    0.509040D-47    0.825490D-81    0.391081D+00
   0   307    0.562358D-85    0.203556D-47    0.145691D-81    0.391081D+00
   0   308    0.110201D-85    0.813882D-48    0.307601D-82    0.391081D+00
   0   309    0.218403D-86    0.325374D-48    0.522727D-83    0.391081D+00
   0   310    0.414615D-87    0.130061D-48    0.998201D-84    0.391081D+00
   0   311    0.828619D-88    0.519814D-49    0.124791D-84    0.391081D+00
   0   312    0.161202D-88    0.207723D-49    0.332361D-85    0.391081D+00
   0   313    0.313525D-89    0.829951D-50    0.885810D-86    0.391081D+00
   0   314    0.603935D-90    0.331551D-50    0.101432D-86    0.391081D+00
   0   315    0.116254D-90    0.132427D-50    0.249632D-87    0.391081D+00
   0   316    0.226500D-91    0.528840D-51    0.508427D-88    0.391081D+00
   0   317    0.443342D-92    0.211151D-51    0.944123D-89    0.391081D+00
   0   318    0.852094D-93    0.842911D-52    0.183500D-89    0.391081D+00
   0   319    0.169143D-93    0.336422D-52    0.395718D-90    0.391081D+00
   0   320    0.328363D-94    0.134246D-52    0.652603D-91    0.391081D+00
   0   321    0.626315D-95    0.535582D-53    0.181074D-91    0.391081D+00
   0   322    0.122160D-95    0.213628D-53    0.290423D-92    0.391081D+00
   0   323    0.238390D-96    0.851908D-54    0.392943D-93    0.391081D+00
   0   324    0.470902D-97    0.339647D-54    0.882450D-94    0.391081D+00
   0   325    0.942329D-98    0.135382D-54    0.204537D-94    0.391081D+00
   0   326    0.179334D-98    0.539492D-55    0.458227D-95    0.391081D+00
   0   327    0.344321D-99    0.214932D-55    0.751150D-96    0.391081D+00
   0   328    0.676904-100    0.856055D-56    0.128576D-96    0.391081D+00
   0   329    0.133437-100    0.340867D-56    0.259739D-97    0.391081D+00
   0   330    0.262975-101    0.135690D-56    0.576185D-98    0.391081D+00
   0   331    0.518217-102    0.539985D-57    0.104956D-98    0.391081D+00
   0   332    0.101696-102    0.214826D-57    0.156554D-99    0.391081D+00
   0   333    0.196686-103    0.854391D-58    0.348455-100    0.391081D+00
   0   334    0.375802-104    0.339693D-58    0.955557-101    0.391081D+00
   0   335    0.729339-105    0.135012D-58    0.157302-101    0.391081D+00
   0   336    0.140936-105    0.536421D-59    0.252888-102    0.391081D+00
   0   337    0.279526-106    0.213052D-59    0.648151-103    0.391081D+00
   0   338    0.540738-107    0.845869D-60    0.101328-103    0.391081D+00
   0   339    0.104888-107    0.335702D-60    0.272359-104    0.391081D+00
   0   340    0.201592-108    0.133178D-60    0.540661-105    0.391081D+00
   0   341    0.391838-109    0.528116D-61    0.903944-106    0.391081D+00
   0   342    0.768152-110    0.209334D-61    0.172670-106    0.391081D+00
   0   343    0.150797-110    0.829391D-62    0.257207-107    0.391081D+00
   0   344    0.300306-111    0.328457D-62    0.615302-108    0.391081D+00
   0   345    0.585740-112    0.130014D-62    0.106736-108    0.391081D+00
   0   346    0.113134-112    0.514384D-63    0.201491-109    0.391081D+00
   0   347    0.218072-113    0.203406D-63    0.378330-110    0.391081D+00
   0   348    0.432598-114    0.803912D-64    0.768474-111    0.391081D+00
   0   349    0.847322-115    0.317553D-64    0.218043-111    0.391081D+00
   0   350    0.164130-115    0.125366D-64    0.394050-112    0.391081D+00
   0   351    0.320638-116    0.494636D-65    0.613414-113    0.391081D+00
   0   352    0.623511-117    0.195043D-65    0.142578-113    0.391081D+00
   0   353    0.119973-117    0.768610D-66    0.245942-114    0.391081D+00
   0   354    0.237555-118    0.302692D-66    0.394416-115    0.391081D+00
   0   355    0.465776-119    0.119126D-66    0.124322-115    0.391081D+00
   0   356    0.903003-120    0.468507D-67    0.237396-116    0.391081D+00
   0   357    0.175660-120    0.184128D-67    0.494767-117    0.391081D+00
   0   358    0.343428-121    0.723114D-68    0.683777-118    0.391081D+00
   0   359    0.673069-122    0.283773D-68    0.127057-118    0.391081D+00
   0   360    0.129666-122    0.111276D-68    0.333576-119    0.391081D+00
   0   361    0.254072-123    0.436002D-69    0.441935-120    0.391081D+00
   0   362    0.484249-124    0.170697D-69    0.136696-120    0.391081D+00
   0   363    0.947895-125    0.667730D-70    0.151366-121    0.391081D+00
   0   364    0.182410-125    0.260980D-70    0.345582-122    0.391081D+00
   0   365    0.363629-126    0.101914D-70    0.717233-123    0.391081D+00
   0   366    0.729397-127    0.397625D-71    0.196327-123    0.391081D+00
   0   367    0.142894-127    0.154994D-71    0.259462-124    0.391081D+00
   0   368    0.280838-128    0.603605D-72    0.657873-125    0.391081D+00
   0   369    0.537409-129    0.234842D-72    0.108998-125    0.391081D+00
   0   370    0.107284-129    0.912797D-73    0.182042-126    0.391081D+00
   0   371    0.209374-130    0.354439D-73    0.340439-127    0.391081D+00
   0   372    0.411593-131    0.137489D-73    0.642527-128    0.391081D+00
   0   373    0.791332-132    0.532777D-74    0.138511-128    0.391081D+00
   0   374    0.151975-132    0.206237D-74    0.437720-129    0.391081D+00
   0   375    0.297063-133    0.797483D-75    0.838096-130    0.391081D+00
   0   376    0.576405-134    0.308037D-75    0.108950-130    0.391081D+00
   0   377    0.112895-134    0.118851D-75    0.300569-131    0.391081D+00
   0   378    0.222114-135    0.458053D-76    0.390741-132    0.391081D+00
   0   379    0.436289-136    0.176332D-76    0.106627-132    0.391081D+00
   0   380    0.857800-137    0.678017D-77    0.240314-133    0.391081D+00
   0   381    0.162942-137    0.260399D-77    0.358417-134    0.391081D+00
   0   382    0.321189-138    0.998896D-78    0.523799-135    0.391081D+00
   0   383    0.642775-139    0.382715D-78    0.172772-135    0.391081D+00
   0   384    0.123012-139    0.146453D-78    0.260701-136    0.391081D+00
   0   385    0.243152-140    0.559734D-79    0.577961-137    0.391081D+00
   0   386    0.477490-141    0.213658D-79    0.971215-138    0.391081D+00
   0   387    0.931553-142    0.814527D-80    0.156338-138    0.391081D+00
   0   388    0.183114-142    0.310123D-80    0.357855-139    0.391081D+00
   0   389    0.360835-143    0.117923D-80    0.564305-140    0.391081D+00
   0   390    0.698769-144    0.447808D-81    0.144057-140    0.391081D+00
   0   391    0.133649-144    0.169829D-81    0.304621-141    0.391081D+00
   0   392    0.264745-145    0.643203D-82    0.509596-142    0.391081D+00
   0   393    0.513853-146    0.243276D-82    0.125749-142    0.391081D+00
   0   394    0.102475-146    0.918875D-83    0.191088-143    0.391081D+00
   0   395    0.198893-147    0.346577D-83    0.396404-144    0.391081D+00
   0   396    0.388718-148    0.130502D-83    0.977769-145    0.391081D+00
   0   397    0.760391-149    0.489718D-84    0.167313-145    0.391081D+00