variables =  "IG"  "JG"  "PHI"  "Temp."  "Latent_heat"  "mm"
ZONE  I=  401  J=  101
   0     0    0.100000D+01    0.864122D+00    0.000000D+00    0.303928D+00
   0     1    0.100000D+01    0.864122D+00    0.000000D+00    0.303928D+00
   0     2    0.100000D+01    0.865404D+00    0.000000D+00    0.303358D+00
   0     3    0.100000D+01    0.867955D+00    0.000000D+00    0.302207D+00
   0     4    0.100000D+01    0.871748D+00    0.000000D+00    0.300456D+00
   0     5    0.100000D+01    0.876742D+00    0.000000D+00    0.298070D+00
   0     6    0.100000D+01    0.882884D+00    0.000000D+00    0.295007D+00
   0     7    0.100000D+01    0.890110D+00    0.000000D+00    0.291208D+00
   0     8    0.100000D+01    0.898342D+00    0.000000D+00    0.286600D+00
   0     9    0.100000D+01    0.907495D+00    0.000000D+00    0.281094D+00
   0    10    0.100000D+01    0.917473D+00    0.000000D+00    0.274583D+00
   0    11    0.100000D+01    0.928174D+00    0.000000D+00    0.266939D+00
   0    12    0.100000D+01    0.939487D+00    0.000000D+00    0.258013D+00
   0    13    0.100000D+01    0.951297D+00    0.000000D+00    0.247637D+00
   0    14    0.100000D+01    0.963486D+00    0.000000D+00    0.235629D+00
   0    15    0.100000D+01    0.975932D+00    0.000000D+00    0.221799D+00
   0    16    0.100000D+01    0.988511D+00    0.000000D+00    0.205969D+00
   0    17    0.100000D+01    0.100110D+01    0.000000D+00    0.188003D+00
   0    18    0.100000D+01    0.101358D+01    0.000000D+00    0.167849D+00
   0    19    0.100000D+01    0.102584D+01    0.000000D+00    0.145591D+00
   0    20    0.100000D+01    0.103774D+01    0.145853D-10    0.121505D+00
   0    21    0.100000D+01    0.104920D+01    0.729264D-10    0.960895D-01
   0    22    0.100000D+01    0.106010D+01    0.933458D-09    0.700521D-01
   0    23    0.100000D+01    0.107034D+01   -0.914497D-08    0.442371D-01
   0    24    0.100000D+01    0.107984D+01    0.307749D-08    0.195076D-01
   0    25    0.100000D+01    0.108851D+01    0.432643D-06   -0.337648D-02
   0    26    0.100000D+01    0.109627D+01   -0.503308D-05   -0.238420D-01
   0    27    0.100000D+01    0.110306D+01   -0.332851D-04   -0.415261D-01
   0    28    0.100000D+01    0.110883D+01   -0.118117D-03   -0.562491D-01
   0    29    0.999997D+00    0.111351D+01    0.811854D-03   -0.679603D-01
   0    30    0.999978D+00    0.111707D+01    0.152579D-01   -0.766770D-01
   0    31    0.999848D+00    0.111945D+01   -0.732963D-01   -0.824288D-01
   0    32    0.998973D+00    0.112062D+01   -0.347585D+00   -0.852008D-01
   0    33    0.993087D+00    0.112051D+01   -0.314698D+01   -0.848395D-01
   0    34    0.953024D+00    0.111927D+01    0.153012D+02   -0.824097D-01
   0    35    0.715960D+00    0.111568D+01   -0.110745D+03   -0.728587D-01
   0    36    0.112145D+00    0.111438D+01    0.194064D+02   -0.707870D-01
   0    37    0.143281D-01    0.111464D+01    0.683011D+00   -0.705426D-01
   0    38    0.212667D-02    0.111245D+01   -0.140132D+01   -0.652796D-01
   0    39    0.600287D-03    0.111030D+01    0.378172D+00   -0.599161D-01
   0    40    0.432436D-03    0.110755D+01    0.354392D-01   -0.529731D-01
   0    41    0.462322D-03    0.110427D+01   -0.259676D+00   -0.445705D-01
   0    42    0.559189D-03    0.110035D+01    0.666213D-01   -0.345052D-01
   0    43    0.754892D-03    0.109603D+01    0.115171D+00   -0.231790D-01
   0    44    0.125028D-02    0.109202D+01   -0.780595D+00   -0.126535D-01
   0    45    0.216647D-02    0.109016D+01   -0.585290D+00   -0.763321D-02
   0    46    0.332577D-02    0.109204D+01   -0.392598D+00   -0.129397D-01
   0    47    0.379461D-02    0.109664D+01    0.533579D+00   -0.248587D-01
   0    48    0.390288D-02    0.110172D+01    0.583595D+00   -0.379550D-01
   0    49    0.371050D-02    0.110487D+01   -0.200430D+01   -0.460658D-01
   0    50    0.350007D-02    0.110683D+01    0.159441D+01   -0.509551D-01
   0    51    0.347425D-02    0.110775D+01   -0.264787D+00   -0.536905D-01
   0    52    0.341671D-02    0.110796D+01   -0.152804D+01   -0.537668D-01
   0    53    0.341962D-02    0.110768D+01   -0.528808D+00   -0.533609D-01
   0    54    0.344480D-02    0.110797D+01    0.950129D-01   -0.540868D-01
   0    55    0.349372D-02    0.110789D+01   -0.105342D+01   -0.537902D-01
   0    56    0.357689D-02    0.110686D+01   -0.190107D+01   -0.512765D-01
   0    57    0.372724D-02    0.110617D+01    0.138618D+01   -0.498132D-01
   0    58    0.376506D-02    0.110607D+01   -0.210888D+01   -0.491071D-01
   0    59    0.384698D-02    0.110536D+01   -0.255518D+01   -0.474444D-01
   0    60    0.393314D-02    0.110479D+01    0.440185D+00   -0.460822D-01
   0    61    0.396351D-02    0.110326D+01   -0.238609D+01   -0.419233D-01
   0    62    0.402788D-02    0.110239D+01   -0.106424D+01   -0.398965D-01
   0    63    0.412740D-02    0.110154D+01    0.213229D+01   -0.373689D-01
   0    64    0.425940D-02    0.110040D+01   -0.116357D+01   -0.345414D-01
   0    65    0.436750D-02    0.109919D+01    0.283005D+01   -0.316432D-01
   0    66    0.449455D-02    0.109846D+01    0.896824D+00   -0.291757D-01
   0    67    0.461688D-02    0.109763D+01    0.103712D+01   -0.273546D-01
   0    68    0.470496D-02    0.109677D+01    0.179188D+01   -0.249353D-01
   0    69    0.481217D-02    0.109546D+01   -0.300498D+01   -0.217526D-01
   0    70    0.497430D-02    0.109439D+01   -0.238559D+01   -0.187792D-01
   0    71    0.514093D-02    0.109256D+01    0.106829D+01   -0.140418D-01
   0    72    0.526622D-02    0.109158D+01   -0.135639D+01   -0.114292D-01
   0    73    0.532889D-02    0.109068D+01   -0.162429D+01   -0.901044D-02
   0    74    0.560405D-02    0.108990D+01    0.322184D+00   -0.672633D-02
   0    75    0.581214D-02    0.108784D+01    0.183510D+01   -0.160949D-02
   0    76    0.590228D-02    0.108656D+01    0.431702D+00    0.220533D-02
   0    77    0.613296D-02    0.108510D+01   -0.229804D+01    0.580551D-02
   0    78    0.648438D-02    0.108353D+01    0.121448D+01    0.948893D-02
   0    79    0.676249D-02    0.108091D+01   -0.159534D+01    0.164141D-01
   0    80    0.692560D-02    0.107925D+01   -0.113500D+01    0.208649D-01
   0    81    0.723376D-02    0.107700D+01    0.556942D+00    0.270189D-01
   0    82    0.780078D-02    0.107551D+01    0.413334D+00    0.309288D-01
   0    83    0.820252D-02    0.107313D+01    0.580917D+00    0.367059D-01
   0    84    0.864591D-02    0.107207D+01    0.193112D+01    0.398163D-01
   0    85    0.906030D-02    0.107065D+01    0.676640D+00    0.431893D-01
   0    86    0.951891D-02    0.106940D+01   -0.284397D+01    0.471110D-01
   0    87    0.981919D-02    0.106775D+01   -0.918548D+00    0.509463D-01
   0    88    0.104409D-01    0.106595D+01   -0.358754D+01    0.557302D-01
   0    89    0.110902D-01    0.106486D+01    0.183543D+00    0.577228D-01
   0    90    0.119481D-01    0.106498D+01   -0.480907D+00    0.582318D-01
   0    91    0.124408D-01    0.106431D+01    0.338491D+00    0.601818D-01
   0    92    0.130012D-01    0.106340D+01    0.513573D+01    0.621067D-01
   0    93    0.136197D-01    0.106276D+01   -0.173327D+00    0.629413D-01
   0    94    0.141583D-01    0.106307D+01   -0.650008D+01    0.628842D-01
   0    95    0.150643D-01    0.106400D+01   -0.179073D+01    0.608797D-01
   0    96    0.158934D-01    0.106320D+01   -0.608735D+01    0.621269D-01
   0    97    0.165707D-01    0.106538D+01    0.301979D+01    0.576278D-01
   0    98    0.171138D-01    0.106762D+01    0.323515D+01    0.515707D-01
   0    99    0.181022D-01    0.106974D+01   -0.122002D+02    0.463239D-01
   0   100    0.188250D-01    0.107163D+01   -0.795883D+01    0.405392D-01
   0   101    0.193867D-01    0.107261D+01    0.123790D+02    0.377478D-01
   0   102    0.197473D-01    0.107673D+01   -0.872764D+01    0.279402D-01
   0   103    0.205174D-01    0.108050D+01   -0.105766D+02    0.168060D-01
   0   104    0.209057D-01    0.108160D+01    0.363627D+01    0.136321D-01
   0   105    0.214004D-01    0.108458D+01   -0.651230D+01    0.651230D-02
   0   106    0.216843D-01    0.108768D+01   -0.557483D+01   -0.102673D-02
   0   107    0.219900D-01    0.109035D+01    0.103380D+02   -0.772211D-02
   0   108    0.223106D-01    0.109221D+01   -0.135260D+02   -0.126087D-01
   0   109    0.229820D-01    0.109303D+01   -0.130831D+02   -0.148734D-01
   0   110    0.235198D-01    0.109687D+01   -0.163515D+02   -0.253281D-01
   0   111    0.237425D-01    0.109888D+01   -0.930715D+01   -0.306854D-01
   0   112    0.244556D-01    0.110042D+01    0.873257D+01   -0.357138D-01
   0   113    0.245682D-01    0.110273D+01    0.191532D+02   -0.395532D-01
   0   114    0.245322D-01    0.110334D+01    0.149421D+02   -0.407231D-01
   0   115    0.250471D-01    0.110439D+01    0.146294D+02   -0.456413D-01
   0   116    0.256950D-01    0.110620D+01    0.342653D+01   -0.487199D-01
   0   117    0.264524D-01    0.110602D+01    0.692259D+01   -0.490394D-01
   0   118    0.266929D-01    0.110562D+01   -0.494097D+01   -0.482961D-01
   0   119    0.278866D-01    0.110746D+01    0.228027D+01   -0.539397D-01
   0   120    0.279570D-01    0.110870D+01   -0.130124D+02   -0.541435D-01
   0   121    0.284565D-01    0.110853D+01   -0.313251D+01   -0.561324D-01
   0   122    0.296305D-01    0.110977D+01   -0.302430D+01   -0.573240D-01
   0   123    0.302309D-01    0.110692D+01   -0.175409D+02   -0.530076D-01
   0   124    0.310463D-01    0.110614D+01   -0.622125D+01   -0.509405D-01
   0   125    0.321774D-01    0.110597D+01   -0.155738D+02   -0.470882D-01
   0   126    0.333178D-01    0.110502D+01   -0.175460D+02   -0.477736D-01
   0   127    0.344409D-01    0.110292D+01   -0.198044D+01   -0.411056D-01
   0   128    0.358288D-01    0.110192D+01    0.147568D+02   -0.405970D-01
   0   129    0.377856D-01    0.109883D+01    0.128208D+02   -0.296200D-01
   0   130    0.395782D-01    0.109742D+01   -0.165161D+02   -0.258644D-01
   0   131    0.409946D-01    0.109318D+01    0.112396D+02   -0.171147D-01
   0   132    0.431284D-01    0.109257D+01    0.180455D+02   -0.115587D-01
   0   133    0.463992D-01    0.109011D+01   -0.873841D+01   -0.689753D-02
   0   134    0.496430D-01    0.108570D+01    0.775416D+01    0.470429D-02
   0   135    0.534564D-01    0.108505D+01    0.120260D+02    0.794729D-02
   0   136    0.591023D-01    0.108217D+01    0.126022D+02    0.161536D-01
   0   137    0.658337D-01    0.107875D+01    0.300106D+02    0.213546D-01
   0   138    0.739020D-01    0.107263D+01   -0.515855D+02    0.384590D-01
   0   139    0.814076D-01    0.107411D+01   -0.382281D+02    0.331895D-01
   0   140    0.901416D-01    0.107485D+01   -0.238686D+02    0.308766D-01
   0   141    0.976189D-01    0.107268D+01    0.628306D+01    0.404203D-01
   0   142    0.107114D+00    0.107294D+01   -0.275993D+02    0.348653D-01
   0   143    0.118277D+00    0.107620D+01    0.429294D+02    0.291901D-01
   0   144    0.133234D+00    0.107418D+01   -0.755322D+02    0.334585D-01
   0   145    0.142853D+00    0.107963D+01   -0.173713D+01    0.197430D-01
   0   146    0.150466D+00    0.108693D+01   -0.868452D+02    0.100834D-02
   0   147    0.161985D+00    0.108732D+01   -0.498669D+02    0.316772D-03
   0   148    0.171609D+00    0.109491D+01   -0.394499D+02   -0.225122D-01
   0   149    0.190775D+00    0.109866D+01   -0.118000D+02   -0.280284D-01
   0   150    0.200886D+00    0.110806D+01    0.295052D+02   -0.550098D-01
   0   151    0.212144D+00    0.111557D+01   -0.200886D+02   -0.774290D-01
   0   152    0.230219D+00    0.111760D+01   -0.272184D+02   -0.768769D-01
   0   153    0.252902D+00    0.111043D+01    0.837719D+02   -0.631921D-01
   0   154    0.275913D+00    0.108861D+01    0.895499D+02   -0.485735D-02
   0   155    0.244926D+00    0.100889D+01    0.228450D+03    0.175600D+00
   0   156    0.107105D+00    0.732838D+00    0.121369D+03    0.343350D+00
   0   157    0.308988D-01    0.405912D+00    0.632726D+02    0.376970D+00
   0   158    0.767281D-02    0.195772D+00    0.118526D+02    0.385847D+00
   0   159    0.180851D-02    0.878374D-01    0.401173D+01    0.388983D+00
   0   160    0.404510D-03    0.378097D-01    0.943756D+00    0.390221D+00
   0   161    0.900499D-04    0.158748D-01    0.176480D+00    0.390727D+00
   0   162    0.190242D-04    0.655862D-02    0.466052D-01    0.390936D+00
   0   163    0.410573D-05    0.268091D-02    0.893512D-02    0.391022D+00
   0   164    0.854062D-06    0.108762D-02    0.237286D-02    0.391057D+00
   0   165    0.178432D-06    0.438821D-03    0.265596D-03    0.391072D+00
   0   166    0.365287D-07    0.176324D-03    0.643165D-04    0.391077D+00
   0   167    0.736942D-08    0.706275D-04    0.131820D-04    0.391080D+00
   0   168    0.151612D-08    0.282216D-04    0.386236D-05    0.391081D+00
   0   169    0.313085D-09    0.112554D-04    0.611196D-06    0.391081D+00
   0   170    0.633546D-10    0.448218D-05    0.117627D-06    0.391081D+00
   0   171    0.126479D-10    0.178280D-05    0.212184D-07    0.391081D+00
   0   172    0.253448D-11    0.708456D-06    0.543176D-08    0.391081D+00
   0   173    0.507770D-12    0.281329D-06    0.128445D-08    0.391081D+00
   0   174    0.101581D-12    0.111657D-06    0.193739D-09    0.391081D+00
   0   175    0.199992D-13    0.442984D-07    0.503645D-10    0.391081D+00
   0   176    0.402974D-14    0.175702D-07    0.737549D-11    0.391081D+00
   0   177    0.805914D-15    0.696780D-08    0.134817D-11    0.391081D+00
   0   178    0.159356D-15    0.276299D-08    0.244938D-12    0.391081D+00
   0   179    0.312134D-16    0.109561D-08    0.584512D-13    0.391081D+00
   0   180    0.612321D-17    0.434462D-09    0.103931D-13    0.391081D+00
   0   181    0.120313D-17    0.172299D-09    0.333452D-14    0.391081D+00
   0   182    0.238945D-18    0.683389D-10    0.614517D-15    0.391081D+00
   0   183    0.469025D-19    0.271092D-10    0.773489D-16    0.391081D+00
   0   184    0.912838D-20    0.107558D-10    0.209786D-16    0.391081D+00
   0   185    0.177433D-20    0.426827D-11    0.436768D-17    0.391081D+00
   0   186    0.351069D-21    0.169415D-11    0.673966D-18    0.391081D+00
   0   187    0.689484D-22    0.672593D-12    0.133845D-18    0.391081D+00
   0   188    0.135694D-22    0.267089D-12    0.302337D-19    0.391081D+00
   0   189    0.262333D-23    0.106089D-12    0.595490D-20    0.391081D+00
   0   190    0.520972D-24    0.421498D-13    0.967013D-21    0.391081D+00
   0   191    0.102031D-24    0.167510D-13    0.201614D-21    0.391081D+00
   0   192    0.200622D-25    0.665892D-14    0.553844D-22    0.391081D+00
   0   193    0.390424D-26    0.264784D-14    0.740949D-23    0.391081D+00
   0   194    0.765660D-27    0.105319D-14    0.137500D-23    0.391081D+00
   0   195    0.150457D-27    0.419031D-15    0.231597D-24    0.391081D+00
   0   196    0.289992D-28    0.166769D-15    0.600832D-25    0.391081D+00
   0   197    0.573662D-29    0.663912D-16    0.133889D-25    0.391081D+00
   0   198    0.112419D-29    0.264384D-16    0.194860D-26    0.391081D+00
   0   199    0.216348D-30    0.105314D-16    0.574929D-27    0.391081D+00
   0   200    0.417555D-31    0.419626D-17    0.825395D-28    0.391081D+00
   0   201    0.817081D-32    0.167248D-17    0.167802D-28    0.391081D+00
   0   202    0.162887D-32    0.666779D-18    0.352849D-29    0.391081D+00
   0   203    0.319975D-33    0.265901D-18    0.732806D-30    0.391081D+00
   0   204    0.624684D-34    0.106065D-18    0.151025D-30    0.391081D+00
   0   205    0.120433D-34    0.423192D-19    0.246960D-31    0.391081D+00
   0   206    0.234265D-35    0.168892D-19    0.612859D-32    0.391081D+00
   0   207    0.458838D-36    0.674192D-20    0.817895D-33    0.391081D+00
   0   208    0.899146D-37    0.269189D-20    0.152502D-33    0.391081D+00
   0   209    0.174894D-37    0.107504D-20    0.295021D-34    0.391081D+00
   0   210    0.342894D-38    0.429421D-21    0.910392D-35    0.391081D+00
   0   211    0.666978D-39    0.171564D-21    0.156120D-35    0.391081D+00
   0   212    0.129366D-39    0.685571D-22    0.224449D-36    0.391081D+00
   0   213    0.254359D-40    0.274002D-22    0.524961D-37    0.391081D+00
   0   214    0.490688D-41    0.109529D-22    0.121632D-37    0.391081D+00
   0   215    0.949272D-42    0.437895D-23    0.266143D-38    0.391081D+00
   0   216    0.188837D-42    0.175096D-23    0.431396D-39    0.391081D+00
   0   217    0.364828D-43    0.700227D-24    0.605157D-40    0.391081D+00
   0   218    0.709669D-44    0.280063D-24    0.150270D-40    0.391081D+00
   0   219    0.138859D-44    0.112027D-24    0.280169D-41    0.391081D+00
   0   220    0.276068D-45    0.448163D-25    0.555818D-42    0.391081D+00
   0   221    0.531991D-46    0.179304D-25    0.152121D-42    0.391081D+00
   0   222    0.103023D-46    0.717427D-26    0.259140D-43    0.391081D+00
   0   223    0.197492D-47    0.287076D-26    0.559790D-44    0.391081D+00
   0   224    0.387422D-48    0.114880D-26    0.741089D-45    0.391081D+00
   0   225    0.758046D-49    0.459737D-27    0.183333D-45    0.391081D+00
   0   226    0.147102D-49    0.183990D-27    0.275944D-46    0.391081D+00
   0   227    0.289851D-50    0.736357D-28    0.765607D-47    0.391081D+00
   0   228    0.575315D-51    0.294707D-28    0.155554D-47    0.391081D+00
   0   229    0.111173D-51    0.117949D-28    0.317038D-48    0.391081D+00
   0   230    0.218399D-52    0.472057D-29    0.525154D-49    0.391081D+00
   0   231    0.423547D-53    0.188924D-29    0.838128D-50    0.391081D+00
   0   232    0.831606D-54    0.756076D-30    0.185668D-50    0.391081D+00
   0   233    0.159971D-54    0.302571D-30    0.443970D-51    0.391081D+00
   0   234    0.311741D-55    0.121078D-30    0.885416D-52    0.391081D+00
   0   235    0.596953D-56    0.484481D-31    0.165181D-52    0.391081D+00
   0   236    0.118165D-56    0.193846D-31    0.267957D-53    0.391081D+00
   0   237    0.229527D-57    0.775532D-32    0.466345D-54    0.391081D+00
   0   238    0.449429D-58    0.310244D-32    0.116387D-54    0.391081D+00
   0   239    0.888030D-59    0.124097D-32    0.239159D-55    0.391081D+00
   0   240    0.172948D-59    0.496333D-33    0.396177D-56    0.391081D+00
   0   241    0.333724D-60    0.198487D-33    0.946304D-57    0.391081D+00
   0   242    0.658874D-61    0.793663D-34    0.102046D-57    0.391081D+00
   0   243    0.127359D-61    0.317309D-34    0.298905D-58    0.391081D+00
   0   244    0.248339D-62    0.126843D-34    0.440898D-59    0.391081D+00
   0   245    0.480862D-63    0.506974D-35    0.137568D-59    0.391081D+00
   0   246    0.919520D-64    0.202599D-35    0.253687D-60    0.391081D+00
   0   247    0.185682D-64    0.809505D-36    0.334612D-61    0.391081D+00
   0   248    0.359029D-65    0.323392D-36    0.745250D-62    0.391081D+00
   0   249    0.697012D-66    0.129171D-36    0.155075D-62    0.391081D+00
   0   250    0.133788D-66    0.515847D-37    0.293365D-63    0.391081D+00
   0   251    0.262766D-67    0.205967D-37    0.458299D-64    0.391081D+00
   0   252    0.519924D-68    0.822232D-38    0.869167D-65    0.391081D+00
   0   253    0.102995D-68    0.328175D-38    0.210575D-65    0.391081D+00
   0   254    0.198773D-69    0.130957D-38    0.506981D-66    0.391081D+00
   0   255    0.389863D-70    0.522476D-39    0.798453D-67    0.391081D+00
   0   256    0.758635D-71    0.208406D-39    0.175331D-67    0.391081D+00
   0   257    0.147097D-71    0.831114D-40    0.413979D-68    0.391081D+00
   0   258    0.285206D-72    0.331371D-40    0.822592D-69    0.391081D+00
   0   259    0.560272D-73    0.132090D-40    0.157462D-69    0.391081D+00
   0   260    0.108219D-73    0.526407D-41    0.266890D-70    0.391081D+00
   0   261    0.213086D-74    0.209734D-41    0.529386D-71    0.391081D+00
   0   262    0.419681D-75    0.835425D-42    0.104303D-71    0.391081D+00
   0   263    0.812898D-76    0.332685D-42    0.188021D-72    0.391081D+00
   0   264    0.159270D-76    0.132448D-42    0.295489D-73    0.391081D+00
   0   265    0.312983D-77    0.527151D-43    0.863290D-74    0.391081D+00
   0   266    0.606114D-78    0.209750D-43    0.160314D-74    0.391081D+00
   0   267    0.118085D-78    0.834333D-44    0.241339D-75    0.391081D+00
   0   268    0.233128D-79    0.331776D-44    0.474245D-76    0.391081D+00
   0   269    0.463520D-80    0.131890D-44    0.109394D-76    0.391081D+00
   0   270    0.897941D-81    0.524123D-45    0.150051D-77    0.391081D+00
   0   271    0.175000D-81    0.208212D-45    0.302106D-78    0.391081D+00
   0   272    0.343446D-82    0.826844D-46    0.752236D-79    0.391081D+00
   0   273    0.662823D-83    0.328230D-46    0.189271D-79    0.391081D+00
   0   274    0.130546D-83    0.130246D-46    0.218996D-80    0.391081D+00
   0   275    0.258975D-84    0.516626D-47    0.681775D-81    0.391081D+00
   0   276    0.500365D-85    0.204835D-47    0.142670D-81    0.391081D+00
   0   277    0.970914D-86    0.811785D-48    0.165508D-82    0.391081D+00
   0   278    0.188261D-86    0.321572D-48    0.407740D-83    0.391081D+00
   0   279    0.380354D-87    0.127324D-48    0.553324D-84    0.391081D+00
   0   280    0.735408D-88    0.503875D-49    0.190976D-84    0.391081D+00
   0   281    0.145793D-88    0.199302D-49    0.284265D-85    0.391081D+00
   0   282    0.283581D-89    0.787887D-50    0.750375D-86    0.391081D+00
   0   283    0.542179D-90    0.311295D-50    0.161543D-86    0.391081D+00
   0   284    0.106928D-90    0.122921D-50    0.171018D-87    0.391081D+00
   0   285    0.207557D-91    0.485080D-51    0.542379D-88    0.391081D+00
   0   286    0.403858D-92    0.191305D-51    0.672492D-89    0.391081D+00
   0   287    0.783788D-93    0.753963D-52    0.172060D-89    0.391081D+00
   0   288    0.155624D-93    0.296945D-52    0.398690D-90    0.391081D+00
   0   289    0.304515D-94    0.116867D-52    0.508729D-91    0.391081D+00
   0   290    0.595460D-95    0.459609D-53    0.137871D-91    0.391081D+00
   0   291    0.117488D-95    0.180614D-53    0.283257D-92    0.391081D+00
   0   292    0.227774D-96    0.709197D-54    0.517921D-93    0.391081D+00
   0   293    0.447675D-97    0.278244D-54    0.120499D-93    0.391081D+00
   0   294    0.876029D-98    0.109073D-54    0.188648D-94    0.391081D+00
   0   295    0.168977D-98    0.427193D-55    0.452318D-95    0.391081D+00
   0   296    0.325893D-99    0.167162D-55    0.655224D-96    0.391081D+00
   0   297    0.653321-100    0.653498D-56    0.139569D-96    0.391081D+00
   0   298    0.127357-100    0.255230D-56    0.207125D-97    0.391081D+00
   0   299    0.246419-101    0.995836D-57    0.680849D-98    0.391081D+00
   0   300    0.489374-102    0.388150D-57    0.135102D-98    0.391081D+00
   0   301    0.945206-103    0.151132D-57    0.168538D-99    0.391081D+00
   0   302    0.189804-103    0.587818D-58    0.288369-100    0.391081D+00
   0   303    0.370594-104    0.228375D-58    0.834634-101    0.391081D+00
   0   304    0.717176-105    0.886262D-59    0.163785-101    0.391081D+00
   0   305    0.142252-105    0.343535D-59    0.377582-102    0.391081D+00
   0   306    0.274836-106    0.133004D-59    0.499541-103    0.391081D+00
   0   307    0.533462-107    0.514313D-60    0.153556-103    0.391081D+00
   0   308    0.106449-107    0.198633D-60    0.175202-104    0.391081D+00
   0   309    0.210443-108    0.766170D-61    0.436962-105    0.391081D+00
   0   310    0.415686-109    0.295146D-61    0.625217-106    0.391081D+00
   0   311    0.813362-110    0.113547D-61    0.159868-106    0.391081D+00
   0   312    0.160694-110    0.436247D-62    0.404220-107    0.391081D+00
   0   313    0.315731-111    0.167377D-62    0.888755-108    0.391081D+00
   0   314    0.626096-112    0.641288D-63    0.175237-108    0.391081D+00
   0   315    0.123431-112    0.245357D-63    0.341425-109    0.391081D+00
   0   316    0.245089-113    0.937389D-64    0.518931-110    0.391081D+00
   0   317    0.466896-114    0.357610D-64    0.100966-110    0.391081D+00
   0   318    0.913571-115    0.136225D-64    0.209886-111    0.391081D+00
   0   319    0.181416-115    0.518147D-65    0.470830-112    0.391081D+00
   0   320    0.360312-116    0.196784D-65    0.896381-113    0.391081D+00
   0   321    0.701984-117    0.746208D-66    0.183342-113    0.391081D+00
   0   322    0.134506-117    0.282523D-66    0.299248-114    0.391081D+00
   0   323    0.264453-118    0.106798D-66    0.662832-115    0.391081D+00
   0   324    0.521245-119    0.403072D-67    0.125000-115    0.391081D+00
   0   325    0.101484-119    0.151881D-67    0.246726-116    0.391081D+00
   0   326    0.200543-120    0.571369D-68    0.508803-117    0.391081D+00
   0   327    0.393962-121    0.214594D-68    0.108939-117    0.391081D+00
   0   328    0.774036-122    0.804638D-69    0.195131-118    0.391081D+00
   0   329    0.150382-122    0.301201D-69    0.359943-119    0.391081D+00
   0   330    0.295702-123    0.112559D-69    0.719731-120    0.391081D+00
   0   331    0.583018-124    0.419920D-70    0.114919-120    0.391081D+00
   0   332    0.114149-124    0.156390D-70    0.217086-121    0.391081D+00
   0   333    0.222614-125    0.581436D-71    0.602504-122    0.391081D+00
   0   334    0.438944-126    0.215794D-71    0.912352-123    0.391081D+00
   0   335    0.862017-127    0.799500D-72    0.168954-123    0.391081D+00
   0   336    0.171320-127    0.295687D-72    0.292407-124    0.391081D+00
   0   337    0.333489-128    0.109163D-72    0.737112-125    0.391081D+00
   0   338    0.653175-129    0.402297D-73    0.132332-125    0.391081D+00
   0   339    0.129089-129    0.147992D-73    0.315403-126    0.391081D+00
   0   340    0.258082-130    0.543435D-74    0.656043-127    0.391081D+00
   0   341    0.501867-131    0.199191D-74    0.842857-128    0.391081D+00
   0   342    0.975936-132    0.728791D-75    0.213512-128    0.391081D+00
   0   343    0.195976-132    0.266159D-75    0.486004-129    0.391081D+00
   0   344    0.388186-133    0.970246D-76    0.680966-130    0.391081D+00
   0   345    0.752012-134    0.353038D-76    0.198095-130    0.391081D+00
   0   346    0.146632-134    0.128220D-76    0.411202-131    0.391081D+00
   0   347    0.284243-135    0.464820D-77    0.658423-132    0.391081D+00
   0   348    0.552856-136    0.168191D-77    0.155432-132    0.391081D+00
   0   349    0.110697-136    0.607447D-78    0.215936-133    0.391081D+00
   0   350    0.218183-137    0.218977D-78    0.454724-134    0.391081D+00
   0   351    0.428160-138    0.787896D-79    0.100267-134    0.391081D+00
   0   352    0.839278-139    0.282956D-79    0.149194-135    0.391081D+00
   0   353    0.162500-139    0.101425D-79    0.449778-136    0.391081D+00
   0   354    0.319586-140    0.362869D-80    0.898894-137    0.391081D+00
   0   355    0.624333-141    0.129576D-80    0.111790-137    0.391081D+00
   0   356    0.121184-141    0.461818D-81    0.214312-138    0.391081D+00
   0   357    0.237169-142    0.164281D-81    0.555849-139    0.391081D+00
   0   358    0.462149-143    0.583269D-82    0.883262-140    0.391081D+00
   0   359    0.891425-144    0.206689D-82    0.172645-140    0.391081D+00
   0   360    0.175769-144    0.731020D-83    0.349327-141    0.391081D+00
   0   361    0.353024-145    0.258050D-83    0.766836-142    0.391081D+00
   0   362    0.693007-146    0.909159D-84    0.116234-142    0.391081D+00
   0   363    0.134941-146    0.319695D-84    0.390594-143    0.391081D+00
   0   364    0.261942-147    0.112199D-84    0.561254-144    0.391081D+00
   0   365    0.521693-148    0.393008D-85    0.103657-144    0.391081D+00
   0   366    0.103907-148    0.137395D-85    0.288479-145    0.391081D+00
   0   367    0.200343-149    0.479395D-86    0.454271-146    0.391081D+00
   0   368    0.402307-150    0.166944D-86    0.968505-147    0.391081D+00
   0   369    0.787412-151    0.580233D-87    0.173804-147    0.391081D+00
   0   370    0.155410-151    0.201274D-87    0.273597-148    0.391081D+00
   0   371    0.306102-152    0.696824D-88    0.648114-149    0.391081D+00
   0   372    0.595765-153    0.240775D-88    0.158311-149    0.391081D+00
   0   373    0.116956-153    0.830327D-89    0.327435-150    0.391081D+00
   0   374    0.229508-154    0.285784D-89    0.434865-151    0.391081D+00
   0   375    0.446297-155    0.981694D-90    0.915277-152    0.391081D+00
   0   376    0.878293-156    0.336561D-90    0.165767-152    0.391081D+00
   0   377    0.170486-156    0.115160D-90    0.404610-153    0.391081D+00
   0   378    0.335394-157    0.393265D-91    0.716662-154    0.391081D+00
   0   379    0.651795-158    0.134035D-91    0.184545-154    0.391081D+00
   0   380    0.127729-158    0.455931D-92    0.269261-155    0.391081D+00
   0   381    0.249467-159    0.154785D-92    0.614248-156    0.391081D+00
   0   382    0.479251-160    0.524450D-93    0.113456-156    0.391081D+00
   0   383    0.939163-161    0.177349D-93    0.195087-157    0.391081D+00
   0   384    0.185748-161    0.598548D-94    0.375024-158    0.391081D+00
   0   385    0.359219-162    0.201612D-94    0.624503-159    0.391081D+00
   0   386    0.705582-163    0.677770D-95    0.182110-159    0.391081D+00
   0   387    0.138615-163    0.227403D-95    0.395086-160    0.391081D+00
   0   388    0.272222-164    0.761475D-96    0.766934-161    0.391081D+00
   0   389    0.532094-165    0.254486D-96    0.124080-161    0.391081D+00
   0   390    0.105876-165    0.848825D-97    0.153482-162    0.391081D+00
   0   391    0.209551-166    0.282567D-97    0.524907-163    0.391081D+00
   0   392    0.404640-167    0.938797D-98    0.100788-163    0.391081D+00
   0   393    0.788837-168    0.311294D-98    0.186212-164    0.391081D+00
   0   394    0.155065-168    0.103019D-98    0.439217-165    0.391081D+00
   0   395    0.302449-169    0.340258D-99    0.747581-166    0.391081D+00
   0   396    0.587279-170    0.112151D-99    0.157125-166    0.391081D+00
   0   397    0.115525-170    0.368573-100    0.207811-167    0.391081D+00