variables =  "IG"  "JG"  "PHI"  "Temp."  "Latent_heat"  "mm"
ZONE  I=  401  J=  101
   0     0    0.100000D+01    0.984402D+00    0.000000D+00    0.211364D+00
   0     1    0.100000D+01    0.984402D+00    0.000000D+00    0.211364D+00
   0     2    0.100000D+01    0.984758D+00    0.000000D+00    0.210906D+00
   0     3    0.100000D+01    0.985467D+00    0.000000D+00    0.209989D+00
   0     4    0.100000D+01    0.986525D+00    0.000000D+00    0.208607D+00
   0     5    0.100000D+01    0.987925D+00    0.000000D+00    0.206756D+00
   0     6    0.100000D+01    0.989659D+00    0.000000D+00    0.204428D+00
   0     7    0.100000D+01    0.991715D+00    0.000000D+00    0.201614D+00
   0     8    0.100000D+01    0.994082D+00    0.000000D+00    0.198302D+00
   0     9    0.100000D+01    0.996744D+00    0.000000D+00    0.194483D+00
   0    10    0.100000D+01    0.999685D+00    0.000000D+00    0.190144D+00
   0    11    0.100000D+01    0.100289D+01    0.000000D+00    0.185274D+00
   0    12    0.100000D+01    0.100633D+01    0.000000D+00    0.179862D+00
   0    13    0.100000D+01    0.101000D+01    0.000000D+00    0.173899D+00
   0    14    0.100000D+01    0.101386D+01    0.000000D+00    0.167378D+00
   0    15    0.100000D+01    0.101790D+01    0.000000D+00    0.160299D+00
   0    16    0.100000D+01    0.102209D+01    0.000000D+00    0.152663D+00
   0    17    0.100000D+01    0.102642D+01    0.000000D+00    0.144482D+00
   0    18    0.100000D+01    0.103084D+01    0.000000D+00    0.135774D+00
   0    19    0.100000D+01    0.103534D+01    0.000000D+00    0.126566D+00
   0    20    0.100000D+01    0.103990D+01    0.000000D+00    0.116899D+00
   0    21    0.100000D+01    0.104448D+01    0.000000D+00    0.106821D+00
   0    22    0.100000D+01    0.104907D+01    0.000000D+00    0.963961D-01
   0    23    0.100000D+01    0.105364D+01    0.291706D-10    0.856969D-01
   0    24    0.100000D+01    0.105816D+01   -0.835737D-08    0.748070D-01
   0    25    0.100000D+01    0.106262D+01    0.402554D-08    0.638174D-01
   0    26    0.100000D+01    0.106699D+01    0.397114D-06    0.528247D-01
   0    27    0.100000D+01    0.107124D+01    0.116567D-05    0.419273D-01
   0    28    0.100000D+01    0.107537D+01   -0.832212D-05    0.312224D-01
   0    29    0.999999D+00    0.107935D+01    0.572879D-04    0.208015D-01
   0    30    0.999993D+00    0.108317D+01   -0.437556D-02    0.107460D-01
   0    31    0.999942D+00    0.108681D+01    0.366251D-01    0.112263D-02
   0    32    0.999560D+00    0.109026D+01   -0.591058D-01   -0.798376D-02
   0    33    0.996587D+00    0.109345D+01    0.951990D+00   -0.164345D-01
   0    34    0.973992D+00    0.109654D+01   -0.124288D+02   -0.244819D-01
   0    35    0.818354D+00    0.109905D+01   -0.670551D+02   -0.328466D-01
   0    36    0.151215D+00    0.110093D+01    0.417493D+02   -0.375135D-01
   0    37    0.208109D-01    0.110236D+01   -0.103439D+02   -0.399221D-01
   0    38    0.280774D-02    0.110330D+01    0.198534D+01   -0.420727D-01
   0    39    0.440315D-03    0.110358D+01   -0.233693D+00   -0.428386D-01
   0    40    0.115263D-03    0.110336D+01   -0.456135D-01   -0.422609D-01
   0    41    0.702730D-04    0.110280D+01   -0.428790D-01   -0.408223D-01
   0    42    0.641036D-04    0.110189D+01    0.696917D-02   -0.384653D-01
   0    43    0.670567D-04    0.110063D+01    0.276679D-01   -0.352009D-01
   0    44    0.716894D-04    0.109902D+01    0.269670D-01   -0.310307D-01
   0    45    0.794711D-04    0.109721D+01    0.311123D-01   -0.262681D-01
   0    46    0.935926D-04    0.109539D+01    0.246852D-01   -0.215205D-01
   0    47    0.131705D-03    0.109394D+01   -0.915971D-01   -0.176885D-01
   0    48    0.213005D-03    0.109335D+01   -0.488014D-01   -0.161592D-01
   0    49    0.345174D-03    0.109412D+01   -0.126509D+00   -0.182022D-01
   0    50    0.451411D-03    0.109623D+01    0.735157D-01   -0.237579D-01
   0    51    0.494439D-03    0.109903D+01   -0.275249D+00   -0.310303D-01
   0    52    0.474884D-03    0.110175D+01    0.319593D+00   -0.381111D-01
   0    53    0.450269D-03    0.110393D+01    0.242386D+00   -0.437113D-01
   0    54    0.417814D-03    0.110530D+01    0.222582D+00   -0.472348D-01
   0    55    0.390172D-03    0.110599D+01    0.215907D+00   -0.490350D-01
   0    56    0.369252D-03    0.110609D+01    0.484186D-03   -0.492941D-01
   0    57    0.361017D-03    0.110594D+01   -0.176144D+00   -0.489134D-01
   0    58    0.349008D-03    0.110548D+01    0.378103D-01   -0.477500D-01
   0    59    0.344623D-03    0.110498D+01    0.181288D+00   -0.464267D-01
   0    60    0.340071D-03    0.110451D+01    0.678702D-01   -0.452617D-01
   0    61    0.341992D-03    0.110434D+01   -0.103103D+00   -0.448258D-01
   0    62    0.348704D-03    0.110434D+01   -0.101738D+00   -0.448020D-01
   0    63    0.349188D-03    0.110446D+01   -0.104318D+00   -0.451161D-01
   0    64    0.348617D-03    0.110466D+01    0.979849D-01   -0.456502D-01
   0    65    0.348257D-03    0.110503D+01    0.151017D+00   -0.465949D-01
   0    66    0.355945D-03    0.110550D+01    0.783195D-01   -0.477877D-01
   0    67    0.357105D-03    0.110579D+01    0.202213D+00   -0.485462D-01
   0    68    0.355034D-03    0.110607D+01   -0.249562D-01   -0.492207D-01
   0    69    0.360180D-03    0.110632D+01    0.165650D-01   -0.498738D-01
   0    70    0.360606D-03    0.110659D+01   -0.289032D-01   -0.505727D-01
   0    71    0.357939D-03    0.110689D+01   -0.943482D-01   -0.513418D-01
   0    72    0.363324D-03    0.110725D+01    0.150143D+00   -0.522647D-01
   0    73    0.364912D-03    0.110755D+01   -0.113594D-01   -0.530124D-01
   0    74    0.364655D-03    0.110778D+01    0.110179D-01   -0.535879D-01
   0    75    0.362802D-03    0.110798D+01    0.173381D+00   -0.541120D-01
   0    76    0.371105D-03    0.110821D+01    0.380915D-01   -0.546992D-01
   0    77    0.377360D-03    0.110840D+01    0.491006D-02   -0.551478D-01
   0    78    0.372587D-03    0.110854D+01    0.745365D-01   -0.554740D-01
   0    79    0.378214D-03    0.110861D+01   -0.191810D+00   -0.556912D-01
   0    80    0.381128D-03    0.110859D+01    0.187289D+00   -0.556241D-01
   0    81    0.386347D-03    0.110867D+01    0.104812D+00   -0.558151D-01
   0    82    0.385577D-03    0.110875D+01   -0.287898D+00   -0.560541D-01
   0    83    0.383273D-03    0.110881D+01    0.734183D-01   -0.562123D-01
   0    84    0.392528D-03    0.110879D+01    0.677302D-01   -0.561059D-01
   0    85    0.398355D-03    0.110874D+01    0.999716D-01   -0.559843D-01
   0    86    0.406778D-03    0.110870D+01   -0.100202D-01   -0.559309D-01
   0    87    0.401481D-03    0.110859D+01   -0.493158D-01   -0.556366D-01
   0    88    0.399793D-03    0.110850D+01    0.524318D-01   -0.553980D-01
   0    89    0.406277D-03    0.110844D+01   -0.230400D+00   -0.552625D-01
   0    90    0.414698D-03    0.110832D+01   -0.337020D+00   -0.549576D-01
   0    91    0.408166D-03    0.110813D+01   -0.192205D+00   -0.544393D-01
   0    92    0.419978D-03    0.110794D+01   -0.252812D+00   -0.539753D-01
   0    93    0.422196D-03    0.110776D+01    0.194837D+00   -0.535028D-01
   0    94    0.421304D-03    0.110758D+01   -0.198662D+00   -0.530775D-01
   0    95    0.428424D-03    0.110745D+01    0.301739D+00   -0.527395D-01
   0    96    0.433825D-03    0.110735D+01   -0.217945D+00   -0.524627D-01
   0    97    0.435742D-03    0.110714D+01    0.133698D+00   -0.519433D-01
   0    98    0.441750D-03    0.110689D+01   -0.529041D-01   -0.513304D-01
   0    99    0.450398D-03    0.110669D+01   -0.122356D+00   -0.507695D-01
   0   100    0.448649D-03    0.110627D+01    0.563886D-01   -0.496920D-01
   0   101    0.456569D-03    0.110594D+01    0.148430D+00   -0.488550D-01
   0   102    0.457880D-03    0.110556D+01   -0.283810D+00   -0.479309D-01
   0   103    0.463185D-03    0.110521D+01    0.278290D-01   -0.470468D-01
   0   104    0.470257D-03    0.110495D+01   -0.143708D+00   -0.463591D-01
   0   105    0.469874D-03    0.110464D+01   -0.289340D+00   -0.455245D-01
   0   106    0.481886D-03    0.110423D+01   -0.314196D+00   -0.445066D-01
   0   107    0.481150D-03    0.110390D+01    0.144921D+00   -0.436533D-01
   0   108    0.492354D-03    0.110359D+01    0.175630D+00   -0.428709D-01
   0   109    0.504140D-03    0.110306D+01   -0.423674D+00   -0.415178D-01
   0   110    0.502362D-03    0.110252D+01   -0.140906D+00   -0.400788D-01
   0   111    0.511287D-03    0.110205D+01    0.271563D+00   -0.389192D-01
   0   112    0.510119D-03    0.110159D+01   -0.270535D+00   -0.376970D-01
   0   113    0.522327D-03    0.110104D+01   -0.364110D-01   -0.362686D-01
   0   114    0.521227D-03    0.110048D+01   -0.280629D+00   -0.348354D-01
   0   115    0.542403D-03    0.110002D+01   -0.291861D+00   -0.335753D-01
   0   116    0.546125D-03    0.109944D+01   -0.750302D-01   -0.320723D-01
   0   117    0.550065D-03    0.109876D+01    0.215504D+00   -0.303211D-01
   0   118    0.570978D-03    0.109817D+01   -0.106003D+00   -0.287401D-01
   0   119    0.573819D-03    0.109751D+01    0.261976D+00   -0.270277D-01
   0   120    0.591374D-03    0.109691D+01   -0.104058D+00   -0.254728D-01
   0   121    0.590602D-03    0.109625D+01    0.173237D+00   -0.237505D-01
   0   122    0.606266D-03    0.109554D+01   -0.665437D-01   -0.218869D-01
   0   123    0.619126D-03    0.109485D+01   -0.183399D+00   -0.201114D-01
   0   124    0.630318D-03    0.109407D+01    0.654290D-01   -0.180266D-01
   0   125    0.638861D-03    0.109340D+01    0.338061D+00   -0.162270D-01
   0   126    0.650709D-03    0.109267D+01   -0.378996D-01   -0.143276D-01
   0   127    0.666545D-03    0.109196D+01    0.688576D-01   -0.125080D-01
   0   128    0.682399D-03    0.109125D+01   -0.507940D+00   -0.105934D-01
   0   129    0.692526D-03    0.109045D+01   -0.197635D+00   -0.845270D-02
   0   130    0.691973D-03    0.108947D+01    0.716956D-01   -0.592436D-02
   0   131    0.719649D-03    0.108860D+01   -0.233462D+00   -0.360437D-02
   0   132    0.746288D-03    0.108767D+01   -0.440909D+00   -0.111413D-02
   0   133    0.752739D-03    0.108685D+01   -0.944949D-01    0.977437D-03
   0   134    0.774813D-03    0.108598D+01    0.596117D+00    0.335208D-02
   0   135    0.798877D-03    0.108494D+01    0.703175D-01    0.612409D-02
   0   136    0.814668D-03    0.108405D+01   -0.285616D+00    0.846349D-02
   0   137    0.852828D-03    0.108320D+01   -0.733346D+00    0.106797D-01
   0   138    0.863614D-03    0.108253D+01    0.434972D+00    0.124418D-01
   0   139    0.870046D-03    0.108169D+01   -0.168081D+00    0.146299D-01
   0   140    0.923603D-03    0.108086D+01   -0.341453D+00    0.168146D-01
   0   141    0.933601D-03    0.107993D+01   -0.293659D+00    0.193106D-01
   0   142    0.952054D-03    0.107895D+01   -0.657367D+00    0.218365D-01
   0   143    0.958459D-03    0.107800D+01   -0.440476D+00    0.243866D-01
   0   144    0.996681D-03    0.107715D+01   -0.344187D+00    0.265918D-01
   0   145    0.101931D-02    0.107612D+01    0.373150D+00    0.292345D-01
   0   146    0.106249D-02    0.107504D+01   -0.324440D+00    0.320688D-01
   0   147    0.109254D-02    0.107395D+01   -0.193277D+00    0.350172D-01
   0   148    0.112735D-02    0.107295D+01    0.271506D+00    0.375372D-01
   0   149    0.115709D-02    0.107162D+01   -0.676257D+00    0.409609D-01
   0   150    0.120897D-02    0.107042D+01    0.468039D+00    0.440721D-01
   0   151    0.129437D-02    0.106930D+01   -0.918628D+00    0.468852D-01
   0   152    0.132169D-02    0.106846D+01    0.641873D+00    0.491302D-01
   0   153    0.134422D-02    0.106780D+01   -0.773856D+00    0.507296D-01
   0   154    0.137513D-02    0.106742D+01    0.921698D+00    0.518221D-01
   0   155    0.142576D-02    0.106695D+01    0.337023D-02    0.528828D-01
   0   156    0.141724D-02    0.106666D+01    0.100987D+01    0.536728D-01
   0   157    0.145541D-02    0.106615D+01    0.761850D+00    0.548667D-01
   0   158    0.151127D-02    0.106562D+01    0.386705D+00    0.562752D-01
   0   159    0.153994D-02    0.106489D+01    0.618373D-01    0.580401D-01
   0   160    0.162225D-02    0.106406D+01   -0.520794D-01    0.602108D-01
   0   161    0.170960D-02    0.106379D+01   -0.110429D+01    0.608752D-01
   0   162    0.176684D-02    0.106355D+01   -0.296787D+00    0.615260D-01
   0   163    0.184511D-02    0.106369D+01    0.479082D+00    0.611148D-01
   0   164    0.190678D-02    0.106412D+01    0.131076D+00    0.601307D-01
   0   165    0.198344D-02    0.106477D+01    0.788077D+00    0.584567D-01
   0   166    0.206271D-02    0.106525D+01   -0.277468D+00    0.572917D-01
   0   167    0.217221D-02    0.106632D+01    0.631355D+00    0.545516D-01
   0   168    0.224479D-02    0.106737D+01    0.143572D+01    0.519135D-01
   0   169    0.229816D-02    0.106875D+01   -0.109997D+01    0.483493D-01
   0   170    0.236343D-02    0.107016D+01    0.187638D+00    0.448102D-01
   0   171    0.243542D-02    0.107146D+01    0.124184D+01    0.411986D-01
   0   172    0.242237D-02    0.107296D+01    0.165632D+01    0.374562D-01
   0   173    0.251878D-02    0.107475D+01    0.146324D+01    0.329506D-01
   0   174    0.252908D-02    0.107612D+01    0.562570D+00    0.293035D-01
   0   175    0.253942D-02    0.107778D+01   -0.133403D+01    0.248417D-01
   0   176    0.250370D-02    0.107931D+01   -0.115795D+01    0.209743D-01
   0   177    0.256785D-02    0.108108D+01   -0.157337D+01    0.162731D-01
   0   178    0.261753D-02    0.108296D+01   -0.308574D+00    0.113732D-01
   0   179    0.265993D-02    0.108525D+01   -0.442559D+00    0.519452D-02
   0   180    0.271745D-02    0.108746D+01    0.978035D+00   -0.781130D-03
   0   181    0.273436D-02    0.108940D+01   -0.153933D+01   -0.577951D-02
   0   182    0.270455D-02    0.109099D+01    0.780968D+00   -0.998650D-02
   0   183    0.277417D-02    0.109265D+01    0.110923D+01   -0.141964D-01
   0   184    0.280031D-02    0.109444D+01    0.118487D+01   -0.192252D-01
   0   185    0.278502D-02    0.109575D+01   -0.679430D+00   -0.224984D-01
   0   186    0.278305D-02    0.109703D+01    0.200798D+00   -0.258837D-01
   0   187    0.275779D-02    0.109786D+01    0.495545D+00   -0.281322D-01
   0   188    0.283989D-02    0.109920D+01    0.587484D+00   -0.314684D-01
   0   189    0.285855D-02    0.110058D+01    0.184750D+01   -0.348819D-01
   0   190    0.291224D-02    0.110149D+01    0.358905D+00   -0.375812D-01
   0   191    0.288775D-02    0.110269D+01    0.356617D+00   -0.403786D-01
   0   192    0.296685D-02    0.110354D+01   -0.774391D+00   -0.425741D-01
   0   193    0.292402D-02    0.110437D+01   -0.162862D+01   -0.448669D-01
   0   194    0.293897D-02    0.110507D+01    0.114981D+00   -0.465126D-01
   0   195    0.296361D-02    0.110634D+01   -0.282981D+00   -0.498332D-01
   0   196    0.302507D-02    0.110641D+01   -0.195215D+01   -0.501132D-01
   0   197    0.301984D-02    0.110718D+01    0.160653D+01   -0.520313D-01
   0   198    0.301764D-02    0.110764D+01    0.199278D+01   -0.529899D-01
   0   199    0.307856D-02    0.110793D+01    0.150357D+01   -0.539774D-01
   0   200    0.315444D-02    0.110814D+01   -0.230574D+01   -0.545530D-01
   0   201    0.316293D-02    0.110871D+01   -0.248238D+00   -0.557439D-01
   0   202    0.315868D-02    0.110837D+01   -0.473716D+00   -0.552016D-01
   0   203    0.319708D-02    0.110864D+01   -0.819158D-01   -0.557461D-01
   0   204    0.326395D-02    0.110877D+01   -0.231695D+01   -0.559342D-01
   0   205    0.319558D-02    0.110885D+01    0.248599D-01   -0.560369D-01
   0   206    0.331937D-02    0.110865D+01   -0.124993D+01   -0.556839D-01
   0   207    0.334489D-02    0.110863D+01    0.130376D+01   -0.557080D-01
   0   208    0.339001D-02    0.110842D+01   -0.192606D+01   -0.552399D-01
   0   209    0.341695D-02    0.110789D+01   -0.102670D+01   -0.538383D-01
   0   210    0.353751D-02    0.110778D+01   -0.276987D+01   -0.537964D-01
   0   211    0.350948D-02    0.110764D+01   -0.225622D+01   -0.532575D-01
   0   212    0.356670D-02    0.110775D+01    0.120818D+00   -0.533202D-01
   0   213    0.361050D-02    0.110722D+01    0.258003D+01   -0.521166D-01
   0   214    0.367959D-02    0.110657D+01    0.208878D+01   -0.506770D-01
   0   215    0.375639D-02    0.110624D+01    0.376456D-01   -0.498753D-01
   0   216    0.387789D-02    0.110565D+01   -0.292935D+01   -0.483488D-01
   0   217    0.391337D-02    0.110535D+01    0.248542D+01   -0.472665D-01
   0   218    0.398097D-02    0.110411D+01   -0.165356D+01   -0.443119D-01
   0   219    0.393094D-02    0.110342D+01   -0.773781D+00   -0.424318D-01
   0   220    0.407221D-02    0.110317D+01    0.709764D+00   -0.416089D-01
   0   221    0.414616D-02    0.110219D+01    0.933668D+00   -0.394510D-01
   0   222    0.416316D-02    0.110123D+01    0.456935D+00   -0.367036D-01
   0   223    0.427679D-02    0.110037D+01   -0.316488D+01   -0.342097D-01
   0   224    0.434919D-02    0.109995D+01   -0.375247D+00   -0.332106D-01
   0   225    0.449410D-02    0.109956D+01   -0.838667D+00   -0.323017D-01
   0   226    0.453652D-02    0.109787D+01    0.636733D+00   -0.280400D-01
   0   227    0.462842D-02    0.109705D+01    0.281847D+01   -0.258727D-01
   0   228    0.475175D-02    0.109650D+01   -0.545422D+00   -0.243788D-01
   0   229    0.489062D-02    0.109493D+01    0.248667D+01   -0.205035D-01
   0   230    0.497680D-02    0.109350D+01    0.138326D+01   -0.164367D-01
   0   231    0.517346D-02    0.109278D+01   -0.974942D+00   -0.147186D-01
   0   232    0.528996D-02    0.109137D+01    0.273376D+01   -0.108636D-01
   0   233    0.557280D-02    0.108988D+01   -0.399629D+01   -0.704906D-02
   0   234    0.572932D-02    0.108827D+01   -0.180934D-01   -0.266890D-02
   0   235    0.598755D-02    0.108629D+01   -0.520397D+00    0.239558D-02
   0   236    0.617346D-02    0.108495D+01   -0.347427D+01    0.620226D-02
   0   237    0.647199D-02    0.108276D+01   -0.125037D+01    0.118036D-01
   0   238    0.670657D-02    0.108121D+01    0.177541D+01    0.161239D-01
   0   239    0.698373D-02    0.108018D+01   -0.506727D+01    0.183846D-01
   0   240    0.723053D-02    0.107885D+01   -0.244095D+01    0.220147D-01
   0   241    0.750016D-02    0.107672D+01   -0.117214D+01    0.281193D-01
   0   242    0.781514D-02    0.107535D+01   -0.187579D+01    0.309564D-01
   0   243    0.798070D-02    0.107475D+01    0.448781D+01    0.332305D-01
   0   244    0.833198D-02    0.107336D+01   -0.904019D+00    0.367569D-01
   0   245    0.882526D-02    0.107232D+01   -0.351890D+01    0.392286D-01
   0   246    0.899088D-02    0.107029D+01    0.284852D+01    0.441374D-01
   0   247    0.935412D-02    0.106892D+01   -0.217198D+01    0.480501D-01
   0   248    0.996652D-02    0.106827D+01   -0.370372D+01    0.498305D-01
   0   249    0.104194D-01    0.106655D+01   -0.372855D+01    0.540817D-01
   0   250    0.110025D-01    0.106528D+01    0.154305D+01    0.570677D-01
   0   251    0.114238D-01    0.106475D+01   -0.756911D+01    0.589188D-01
   0   252    0.120454D-01    0.106415D+01   -0.697540D+01    0.592634D-01
   0   253    0.127564D-01    0.106350D+01   -0.391446D+01    0.611475D-01
   0   254    0.138467D-01    0.106392D+01    0.819234D+00    0.606214D-01
   0   255    0.149658D-01    0.106333D+01   -0.947381D+01    0.615329D-01
   0   256    0.159727D-01    0.106441D+01    0.590083D+01    0.600169D-01
   0   257    0.172037D-01    0.106508D+01   -0.110735D+02    0.570796D-01
   0   258    0.177686D-01    0.106630D+01   -0.109438D+02    0.535951D-01
   0   259    0.183048D-01    0.106760D+01   -0.371522D+01    0.503763D-01
   0   260    0.187039D-01    0.107079D+01   -0.445813D+01    0.434400D-01
   0   261    0.187159D-01    0.107195D+01   -0.680979D+00    0.390207D-01
   0   262    0.192074D-01    0.107398D+01    0.668517D+01    0.353699D-01
   0   263    0.197439D-01    0.107551D+01    0.340824D+01    0.296044D-01
   0   264    0.202652D-01    0.107765D+01   -0.994439D+00    0.256462D-01
   0   265    0.204808D-01    0.107986D+01   -0.315125D+00    0.199466D-01
   0   266    0.205892D-01    0.108163D+01    0.993451D+01    0.138660D-01
   0   267    0.208047D-01    0.108476D+01    0.120452D+02    0.570702D-02
   0   268    0.215738D-01    0.108799D+01   -0.916368D+01   -0.347682D-02
   0   269    0.223571D-01    0.109065D+01    0.297998D+01   -0.813587D-02
   0   270    0.227184D-01    0.109236D+01   -0.111501D+02   -0.122388D-01
   0   271    0.230624D-01    0.109296D+01    0.697111D-01   -0.163275D-01
   0   272    0.234555D-01    0.109710D+01    0.905924D+01   -0.258546D-01
   0   273    0.240188D-01    0.109831D+01   -0.140937D+02   -0.297033D-01
   0   274    0.244501D-01    0.109981D+01    0.129827D+02   -0.326935D-01
   0   275    0.246939D-01    0.110156D+01    0.186510D+01   -0.377980D-01
   0   276    0.244407D-01    0.110438D+01    0.119197D+02   -0.448012D-01
   0   277    0.248119D-01    0.110538D+01    0.118049D+02   -0.463697D-01
   0   278    0.249490D-01    0.110658D+01    0.175369D+02   -0.495275D-01
   0   279    0.253110D-01    0.110548D+01    0.450189D+01   -0.472945D-01
   0   280    0.256590D-01    0.110606D+01   -0.795290D+01   -0.501339D-01
   0   281    0.263761D-01    0.110815D+01    0.119710D+02   -0.529638D-01
   0   282    0.269885D-01    0.110771D+01    0.103267D+01   -0.540163D-01
   0   283    0.274476D-01    0.110776D+01   -0.112488D+02   -0.549957D-01
   0   284    0.272962D-01    0.110821D+01   -0.131014D+02   -0.536896D-01
   0   285    0.284864D-01    0.110914D+01   -0.177282D+02   -0.583948D-01
   0   286    0.289072D-01    0.110789D+01   -0.910169D+01   -0.545876D-01
   0   287    0.293661D-01    0.110811D+01   -0.885442D+01   -0.529780D-01
   0   288    0.298960D-01    0.110883D+01   -0.708785D+01   -0.580976D-01
   0   289    0.307103D-01    0.110634D+01    0.841628D+01   -0.497725D-01
   0   290    0.317774D-01    0.110733D+01    0.151950D+02   -0.531852D-01
   0   291    0.328983D-01    0.110622D+01    0.100922D+02   -0.484806D-01
   0   292    0.339344D-01    0.110373D+01   -0.123399D+02   -0.438996D-01
   0   293    0.353480D-01    0.110320D+01    0.146650D+02   -0.419380D-01
   0   294    0.361256D-01    0.110109D+01   -0.191526D+02   -0.353119D-01
   0   295    0.375046D-01    0.110002D+01    0.126432D+01   -0.356967D-01
   0   296    0.400370D-01    0.109807D+01    0.207521D+02   -0.287307D-01
   0   297    0.416442D-01    0.109511D+01   -0.644674D+01   -0.188714D-01
   0   298    0.440319D-01    0.109463D+01    0.177847D+02   -0.177334D-01
   0   299    0.461668D-01    0.108954D+01   -0.312675D+02   -0.398859D-02
   0   300    0.490080D-01    0.108861D+01   -0.440707D+01   -0.384492D-02
   0   301    0.511565D-01    0.108521D+01   -0.185982D+01    0.469765D-02
   0   302    0.555151D-01    0.108352D+01   -0.288763D+01    0.803853D-02
   0   303    0.591901D-01    0.108016D+01    0.120713D+02    0.175567D-01
   0   304    0.627595D-01    0.107975D+01   -0.182590D+01    0.198710D-01
   0   305    0.707642D-01    0.107557D+01   -0.514757D+02    0.292363D-01
   0   306    0.793512D-01    0.107411D+01   -0.513768D+01    0.378657D-01
   0   307    0.897240D-01    0.107611D+01   -0.199787D+02    0.317575D-01
   0   308    0.101470D+00    0.107260D+01    0.363409D+02    0.419301D-01
   0   309    0.116327D+00    0.107411D+01   -0.904575D+02    0.353386D-01
   0   310    0.124617D+00    0.107634D+01   -0.708532D+02    0.272514D-01
   0   311    0.131895D+00    0.107675D+01   -0.203608D+02    0.242193D-01
   0   312    0.139949D+00    0.108314D+01   -0.894390D+02    0.976364D-02
   0   313    0.153156D+00    0.108641D+01    0.195772D+01   -0.155323D-02
   0   314    0.167373D+00    0.109189D+01   -0.744095D+02   -0.116038D-01
   0   315    0.182476D+00    0.109916D+01    0.546350D+02   -0.286419D-01
   0   316    0.194988D+00    0.110318D+01   -0.941716D+02   -0.395558D-01
   0   317    0.213757D+00    0.111029D+01    0.209830D+01   -0.591503D-01
   0   318    0.233557D+00    0.111690D+01   -0.115287D+03   -0.748524D-01
   0   319    0.257435D+00    0.110686D+01   -0.473639D+02   -0.510236D-01
   0   320    0.279290D+00    0.107588D+01    0.725726D+02    0.326486D-01
   0   321    0.216847D+00    0.967066D+00    0.168351D+03    0.234657D+00
   0   322    0.831299D-01    0.651460D+00    0.136302D+03    0.356213D+00
   0   323    0.232702D-01    0.347540D+00    0.380397D+02    0.379923D+00
   0   324    0.568175D-02    0.164615D+00    0.149531D+02    0.386825D+00
   0   325    0.130240D-02    0.731049D-01    0.248984D+01    0.389360D+00
   0   326    0.286572D-03    0.313256D-01    0.581863D+00    0.390373D+00
   0   327    0.628349D-04    0.131420D-01    0.166927D+00    0.390789D+00
   0   328    0.135071D-04    0.543822D-02    0.260713D-01    0.390961D+00
   0   329    0.283955D-05    0.222936D-02    0.464845D-02    0.391032D+00
   0   330    0.611599D-06    0.907952D-03    0.135509D-02    0.391061D+00
   0   331    0.122674D-06    0.368067D-03    0.369656D-03    0.391073D+00
   0   332    0.253815D-07    0.148693D-03    0.672719D-04    0.391078D+00
   0   333    0.519227D-08    0.599114D-04    0.126804D-04    0.391080D+00
   0   334    0.105897D-08    0.240885D-04    0.163706D-05    0.391081D+00
   0   335    0.215612D-09    0.966839D-05    0.593415D-06    0.391081D+00
   0   336    0.428515D-10    0.387495D-05    0.102550D-06    0.391081D+00
   0   337    0.864500D-11    0.155109D-05    0.173204D-07    0.391081D+00
   0   338    0.173004D-11    0.620220D-06    0.304417D-08    0.391081D+00
   0   339    0.352532D-12    0.247772D-06    0.905314D-09    0.391081D+00
   0   340    0.709887D-13    0.989032D-07    0.189035D-09    0.391081D+00
   0   341    0.140880D-13    0.394516D-07    0.388403D-10    0.391081D+00
   0   342    0.279088D-14    0.157273D-07    0.598414D-11    0.391081D+00
   0   343    0.552361D-15    0.626626D-08    0.122076D-11    0.391081D+00
   0   344    0.109762D-15    0.249550D-08    0.195069D-12    0.391081D+00
   0   345    0.216634D-16    0.993395D-09    0.441695D-13    0.391081D+00
   0   346    0.440639D-17    0.395295D-09    0.110823D-13    0.391081D+00
   0   347    0.870082D-18    0.157242D-09    0.211876D-14    0.391081D+00
   0   348    0.174314D-18    0.625289D-10    0.254732D-15    0.391081D+00
   0   349    0.350345D-19    0.248579D-10    0.713450D-16    0.391081D+00
   0   350    0.685576D-20    0.987935D-11    0.171554D-16    0.391081D+00
   0   351    0.133156D-20    0.392536D-11    0.286306D-17    0.391081D+00
   0   352    0.264080D-21    0.155928D-11    0.730400D-18    0.391081D+00
   0   353    0.528862D-22    0.619250D-12    0.135092D-18    0.391081D+00
   0   354    0.102134D-22    0.245872D-12    0.198174D-19    0.391081D+00
   0   355    0.204238D-23    0.976021D-13    0.419660D-20    0.391081D+00
   0   356    0.401489D-24    0.387363D-13    0.113859D-20    0.391081D+00
   0   357    0.793908D-25    0.153706D-13    0.157301D-21    0.391081D+00
   0   358    0.156832D-25    0.609794D-14    0.305282D-22    0.391081D+00
   0   359    0.305443D-26    0.241879D-14    0.590298D-23    0.391081D+00
   0   360    0.605041D-27    0.959269D-15    0.126182D-23    0.391081D+00
   0   361    0.119519D-27    0.380378D-15    0.283286D-24    0.391081D+00
   0   362    0.232100D-28    0.150810D-15    0.630241D-25    0.391081D+00
   0   363    0.458564D-29    0.597841D-16    0.120487D-25    0.391081D+00
   0   364    0.892598D-30    0.236969D-16    0.223032D-26    0.391081D+00
   0   365    0.174318D-30    0.939181D-17    0.457918D-27    0.391081D+00
   0   366    0.347392D-31    0.372191D-17    0.815691D-28    0.391081D+00
   0   367    0.674449D-32    0.147484D-17    0.139058D-28    0.391081D+00
   0   368    0.133791D-32    0.584376D-18    0.265961D-29    0.391081D+00
   0   369    0.256919D-33    0.231532D-18    0.626542D-30    0.391081D+00
   0   370    0.504888D-34    0.917280D-19    0.141283D-30    0.391081D+00
   0   371    0.981560D-35    0.363389D-19    0.220482D-31    0.391081D+00
   0   372    0.192008D-35    0.143954D-19    0.303098D-32    0.391081D+00
   0   373    0.367225D-36    0.570238D-20    0.896159D-33    0.391081D+00
   0   374    0.723019D-37    0.225879D-20    0.165804D-33    0.391081D+00
   0   375    0.142685D-37    0.894710D-21    0.393240D-34    0.391081D+00
   0   376    0.286160D-38    0.354389D-21    0.446600D-35    0.391081D+00
   0   377    0.553503D-39    0.140368D-21    0.123091D-35    0.391081D+00
   0   378    0.108310D-39    0.555970D-22    0.272621D-36    0.391081D+00
   0   379    0.214734D-40    0.220207D-22    0.540614D-37    0.391081D+00
   0   380    0.420759D-41    0.872180D-23    0.898613D-38    0.391081D+00
   0   381    0.808697D-42    0.345447D-23    0.238292D-38    0.391081D+00
   0   382    0.154753D-42    0.136822D-23    0.373635D-39    0.391081D+00
   0   383    0.304920D-43    0.541921D-24    0.495265D-40    0.391081D+00
   0   384    0.605080D-44    0.214644D-24    0.134734D-40    0.391081D+00
   0   385    0.116935D-44    0.850178D-25    0.309361D-41    0.391081D+00
   0   386    0.231584D-45    0.336751D-25    0.625490D-42    0.391081D+00
   0   387    0.457019D-46    0.133389D-25    0.114848D-42    0.391081D+00
   0   388    0.895658D-47    0.528376D-26    0.223268D-43    0.391081D+00
   0   389    0.176438D-47    0.209306D-26    0.326075D-44    0.391081D+00
   0   390    0.347872D-48    0.829158D-27    0.757000D-45    0.391081D+00
   0   391    0.676126D-49    0.328483D-27    0.147134D-45    0.391081D+00
   0   392    0.133321D-49    0.130140D-27    0.333063D-46    0.391081D+00
   0   393    0.260417D-50    0.515621D-28    0.670837D-47    0.391081D+00
   0   394    0.509288D-51    0.204302D-28    0.139201D-47    0.391081D+00
   0   395    0.996424D-52    0.809493D-29    0.235937D-48    0.391081D+00
   0   396    0.195914D-52    0.320624D-29    0.340034D-49    0.391081D+00
   0   397    0.385726D-53    0.126652D-29    0.100660D-49    0.391081D+00