variables =  "IG"  "JG"  "PHI"  "Temp."  "Latent_heat"  "mm"
ZONE  I=  401  J=  101
   0     0    0.100000D+01    0.996160D+00    0.000000D+00    0.195330D+00
   0     1    0.100000D+01    0.996160D+00    0.000000D+00    0.195330D+00
   0     2    0.100000D+01    0.996461D+00    0.000000D+00    0.194894D+00
   0     3    0.100000D+01    0.997062D+00    0.000000D+00    0.194021D+00
   0     4    0.100000D+01    0.997958D+00    0.000000D+00    0.192707D+00
   0     5    0.100000D+01    0.999146D+00    0.000000D+00    0.190949D+00
   0     6    0.100000D+01    0.100062D+01    0.000000D+00    0.188741D+00
   0     7    0.100000D+01    0.100237D+01    0.000000D+00    0.186078D+00
   0     8    0.100000D+01    0.100438D+01    0.000000D+00    0.182951D+00
   0     9    0.100000D+01    0.100665D+01    0.000000D+00    0.179354D+00
   0    10    0.100000D+01    0.100916D+01    0.000000D+00    0.175279D+00
   0    11    0.100000D+01    0.101190D+01    0.000000D+00    0.170719D+00
   0    12    0.100000D+01    0.101485D+01    0.000000D+00    0.165668D+00
   0    13    0.100000D+01    0.101800D+01    0.000000D+00    0.160122D+00
   0    14    0.100000D+01    0.102133D+01    0.000000D+00    0.154079D+00
   0    15    0.100000D+01    0.102482D+01    0.000000D+00    0.147540D+00
   0    16    0.100000D+01    0.102845D+01    0.000000D+00    0.140512D+00
   0    17    0.100000D+01    0.103221D+01    0.000000D+00    0.133006D+00
   0    18    0.100000D+01    0.103607D+01    0.000000D+00    0.125039D+00
   0    19    0.100000D+01    0.104002D+01    0.000000D+00    0.116637D+00
   0    20    0.100000D+01    0.104403D+01    0.000000D+00    0.107832D+00
   0    21    0.100000D+01    0.104809D+01    0.000000D+00    0.986642D-01
   0    22    0.100000D+01    0.105217D+01    0.160438D-09    0.891848D-01
   0    23    0.100000D+01    0.105625D+01    0.164814D-08    0.794513D-01
   0    24    0.100000D+01    0.106032D+01   -0.339837D-08    0.695295D-01
   0    25    0.100000D+01    0.106435D+01   -0.520549D-07    0.594913D-01
   0    26    0.100000D+01    0.106833D+01   -0.543491D-06    0.494136D-01
   0    27    0.100000D+01    0.107223D+01    0.499202D-05    0.393762D-01
   0    28    0.100000D+01    0.107605D+01    0.360930D-04    0.294599D-01
   0    29    0.999999D+00    0.107975D+01   -0.387405D-04    0.197435D-01
   0    30    0.999993D+00    0.108334D+01   -0.186210D-02    0.103012D-01
   0    31    0.999943D+00    0.108678D+01    0.314256D-01    0.120324D-02
   0    32    0.999562D+00    0.109007D+01   -0.977781D-01   -0.748621D-02
   0    33    0.996646D+00    0.109323D+01    0.658857D+00   -0.158586D-01
   0    34    0.974623D+00    0.109617D+01   -0.734480D+01   -0.236508D-01
   0    35    0.819801D+00    0.109743D+01    0.782997D+02   -0.286819D-01
   0    36    0.153159D+00    0.110079D+01   -0.121144D+02   -0.371230D-01
   0    37    0.216165D-01    0.110311D+01   -0.102974D+02   -0.416588D-01
   0    38    0.298266D-02    0.110356D+01    0.822824D+00   -0.428180D-01
   0    39    0.462056D-03    0.110418D+01    0.118554D+00   -0.443773D-01
   0    40    0.116386D-03    0.110440D+01   -0.371635D-02   -0.449514D-01
   0    41    0.681529D-04    0.110426D+01    0.516395D-02   -0.445864D-01
   0    42    0.602543D-04    0.110382D+01   -0.379569D-02   -0.434635D-01
   0    43    0.611902D-04    0.110305D+01    0.177877D-01   -0.414543D-01
   0    44    0.630626D-04    0.110196D+01    0.643829D-02   -0.386593D-01
   0    45    0.672366D-04    0.110057D+01    0.304375D-01   -0.350416D-01
   0    46    0.711691D-04    0.109888D+01   -0.486567D-01   -0.306497D-01
   0    47    0.793473D-04    0.109696D+01   -0.583076D-01   -0.256224D-01
   0    48    0.921999D-04    0.109499D+01    0.252347D-01   -0.204518D-01
   0    49    0.131520D-03    0.109322D+01   -0.305390D-03   -0.157987D-01
   0    50    0.214778D-03    0.109201D+01   -0.129467D+00   -0.126282D-01
   0    51    0.349815D-03    0.109168D+01   -0.127678D+00   -0.117676D-01
   0    52    0.476782D-03    0.109221D+01   -0.594644D-01   -0.131545D-01
   0    53    0.545999D-03    0.109299D+01   -0.202072D+00   -0.151612D-01
   0    54    0.564249D-03    0.109299D+01   -0.227374D+00   -0.151692D-01
   0    55    0.533356D-03    0.109162D+01   -0.186779D-01   -0.116021D-01
   0    56    0.458014D-03    0.108879D+01    0.117356D+00   -0.410885D-02
   0    57    0.349281D-03    0.108491D+01   -0.271819D-01    0.613307D-02
   0    58    0.251849D-03    0.108100D+01   -0.141773D+00    0.164688D-01
   0    59    0.203931D-03    0.107746D+01    0.152386D-01    0.257716D-01
   0    60    0.190379D-03    0.107457D+01    0.648912D-01    0.333311D-01
   0    61    0.193824D-03    0.107231D+01    0.362574D-01    0.391835D-01
   0    62    0.209596D-03    0.107069D+01    0.113639D+00    0.433398D-01
   0    63    0.225953D-03    0.106968D+01    0.134707D+00    0.459452D-01
   0    64    0.247763D-03    0.106926D+01   -0.959665D-01    0.470187D-01
   0    65    0.276636D-03    0.106940D+01   -0.951597D-01    0.466261D-01
   0    66    0.299739D-03    0.106998D+01    0.175419D+00    0.451623D-01
   0    67    0.321439D-03    0.107082D+01    0.832269D-01    0.429761D-01
   0    68    0.331717D-03    0.107180D+01    0.307898D-01    0.404836D-01
   0    69    0.327176D-03    0.107277D+01    0.161179D+00    0.379201D-01
   0    70    0.317877D-03    0.107363D+01   -0.711752D-01    0.357064D-01
   0    71    0.310862D-03    0.107447D+01    0.707844D-01    0.335062D-01
   0    72    0.307536D-03    0.107553D+01   -0.175813D+00    0.307530D-01
   0    73    0.306863D-03    0.107676D+01    0.137597D+00    0.275442D-01
   0    74    0.310097D-03    0.107822D+01    0.150446D+00    0.237343D-01
   0    75    0.323088D-03    0.107986D+01   -0.345641D-02    0.194319D-01
   0    76    0.330269D-03    0.108165D+01    0.116898D+00    0.147136D-01
   0    77    0.338261D-03    0.108342D+01   -0.184612D-02    0.100563D-01
   0    78    0.344845D-03    0.108505D+01    0.126210D+00    0.572706D-02
   0    79    0.342426D-03    0.108652D+01   -0.252786D+00    0.187687D-02
   0    80    0.332454D-03    0.108791D+01   -0.299096D-01   -0.181563D-02
   0    81    0.338326D-03    0.108934D+01   -0.165494D+00   -0.562197D-02
   0    82    0.340891D-03    0.109077D+01   -0.414117D-01   -0.935237D-02
   0    83    0.343570D-03    0.109208D+01   -0.224879D+00   -0.128596D-01
   0    84    0.343425D-03    0.109341D+01   -0.792276D-01   -0.163386D-01
   0    85    0.345014D-03    0.109470D+01   -0.482615D-02   -0.196997D-01
   0    86    0.343621D-03    0.109579D+01   -0.774323D-01   -0.225715D-01
   0    87    0.341842D-03    0.109678D+01    0.757628D-01   -0.251592D-01
   0    88    0.345208D-03    0.109769D+01   -0.856129D-01   -0.275936D-01
   0    89    0.349525D-03    0.109865D+01    0.111608D+00   -0.300954D-01
   0    90    0.342203D-03    0.109958D+01    0.219013D+00   -0.324917D-01
   0    91    0.346792D-03    0.110047D+01   -0.952030D-01   -0.348296D-01
   0    92    0.349201D-03    0.110123D+01    0.547513D-01   -0.368094D-01
   0    93    0.345292D-03    0.110202D+01   -0.178719D+00   -0.388234D-01
   0    94    0.354434D-03    0.110273D+01   -0.203756D+00   -0.407102D-01
   0    95    0.348606D-03    0.110338D+01    0.175204D+00   -0.423557D-01
   0    96    0.352968D-03    0.110399D+01   -0.907775D-01   -0.439090D-01
   0    97    0.350476D-03    0.110463D+01    0.179931D+00   -0.455269D-01
   0    98    0.355868D-03    0.110521D+01    0.100977D+00   -0.470503D-01
   0    99    0.357332D-03    0.110564D+01   -0.147475D+00   -0.481418D-01
   0   100    0.360130D-03    0.110622D+01   -0.496808D-01   -0.496511D-01
   0   101    0.368555D-03    0.110668D+01   -0.261611D+00   -0.508182D-01
   0   102    0.364741D-03    0.110702D+01   -0.243483D+00   -0.516596D-01
   0   103    0.358162D-03    0.110728D+01    0.262442D+00   -0.523310D-01
   0   104    0.357564D-03    0.110763D+01    0.107194D+00   -0.531823D-01
   0   105    0.366507D-03    0.110792D+01    0.182869D+00   -0.539445D-01
   0   106    0.368550D-03    0.110819D+01    0.224287D+00   -0.546054D-01
   0   107    0.372567D-03    0.110840D+01   -0.157982D+00   -0.551599D-01
   0   108    0.370383D-03    0.110865D+01    0.175455D+00   -0.557595D-01
   0   109    0.376493D-03    0.110890D+01    0.289835D+00   -0.564159D-01
   0   110    0.378278D-03    0.110901D+01    0.267419D+00   -0.566654D-01
   0   111    0.384572D-03    0.110906D+01    0.308747D-01   -0.568134D-01
   0   112    0.382551D-03    0.110906D+01    0.792322D-01   -0.568352D-01
   0   113    0.386781D-03    0.110903D+01   -0.211085D+00   -0.567717D-01
   0   114    0.388084D-03    0.110892D+01    0.203942D+00   -0.564635D-01
   0   115    0.393612D-03    0.110884D+01   -0.919385D-01   -0.562718D-01
   0   116    0.389714D-03    0.110870D+01    0.254547D+00   -0.558998D-01
   0   117    0.390295D-03    0.110859D+01    0.260292D+00   -0.556003D-01
   0   118    0.401734D-03    0.110850D+01   -0.104234D+00   -0.553958D-01
   0   119    0.411356D-03    0.110838D+01   -0.195265D+00   -0.550801D-01
   0   120    0.411700D-03    0.110826D+01    0.216979D+00   -0.548317D-01
   0   121    0.419329D-03    0.110812D+01   -0.208926D+00   -0.544658D-01
   0   122    0.418810D-03    0.110797D+01   -0.878822D-01   -0.540457D-01
   0   123    0.420726D-03    0.110781D+01    0.311399D+00   -0.536282D-01
   0   124    0.429077D-03    0.110758D+01    0.118001D+00   -0.530159D-01
   0   125    0.424879D-03    0.110732D+01    0.140672D+00   -0.524029D-01
   0   126    0.427250D-03    0.110703D+01    0.187587D+00   -0.516893D-01
   0   127    0.437895D-03    0.110677D+01   -0.780288D-02   -0.509894D-01
   0   128    0.445411D-03    0.110654D+01   -0.705826D-02   -0.503954D-01
   0   129    0.447175D-03    0.110632D+01    0.779343D-01   -0.498324D-01
   0   130    0.458941D-03    0.110608D+01   -0.286650D+00   -0.492887D-01
   0   131    0.458270D-03    0.110569D+01    0.176573D+00   -0.482405D-01
   0   132    0.461460D-03    0.110529D+01   -0.124680D+00   -0.472094D-01
   0   133    0.470518D-03    0.110484D+01    0.894810D-01   -0.460491D-01
   0   134    0.476576D-03    0.110432D+01    0.267392D+00   -0.447292D-01
   0   135    0.480567D-03    0.110385D+01   -0.238413D-02   -0.435373D-01
   0   136    0.487822D-03    0.110340D+01    0.195822D+00   -0.423884D-01
   0   137    0.486246D-03    0.110296D+01   -0.613021D-01   -0.412263D-01
   0   138    0.496381D-03    0.110252D+01    0.297910D+00   -0.400590D-01
   0   139    0.507809D-03    0.110212D+01    0.235774D-01   -0.390226D-01
   0   140    0.513773D-03    0.110165D+01    0.514925D-01   -0.378416D-01
   0   141    0.521257D-03    0.110120D+01   -0.356421D+00   -0.366842D-01
   0   142    0.533806D-03    0.110065D+01    0.256734D+00   -0.352366D-01
   0   143    0.539127D-03    0.110011D+01    0.195075D+00   -0.338357D-01
   0   144    0.539608D-03    0.109952D+01    0.802669D-01   -0.323356D-01
   0   145    0.558194D-03    0.109903D+01    0.204410D+00   -0.310729D-01
   0   146    0.565282D-03    0.109844D+01    0.508938D-01   -0.295243D-01
   0   147    0.569899D-03    0.109793D+01   -0.378477D+00   -0.281195D-01
   0   148    0.579085D-03    0.109736D+01    0.306311D+00   -0.266831D-01
   0   149    0.583787D-03    0.109677D+01   -0.362144D-01   -0.250834D-01
   0   150    0.600053D-03    0.109628D+01   -0.635237D-01   -0.238478D-01
   0   151    0.603641D-03    0.109556D+01   -0.313348D+00   -0.219567D-01
   0   152    0.601507D-03    0.109488D+01   -0.247799D+00   -0.201227D-01
   0   153    0.617902D-03    0.109433D+01    0.300109D+00   -0.187225D-01
   0   154    0.631279D-03    0.109377D+01   -0.126748D+00   -0.172642D-01
   0   155    0.650024D-03    0.109327D+01   -0.262166D+00   -0.159551D-01
   0   156    0.650315D-03    0.109274D+01   -0.378130D+00   -0.145535D-01
   0   157    0.656720D-03    0.109212D+01   -0.323473D+00   -0.128907D-01
   0   158    0.670990D-03    0.109142D+01    0.393557D+00   -0.110219D-01
   0   159    0.687105D-03    0.109065D+01    0.112674D+00   -0.900551D-02
   0   160    0.693862D-03    0.108985D+01   -0.208101D+00   -0.686893D-02
   0   161    0.708795D-03    0.108909D+01   -0.265516D+00   -0.487597D-02
   0   162    0.738377D-03    0.108833D+01   -0.355966D+00   -0.288059D-02
   0   163    0.745955D-03    0.108742D+01   -0.436552D+00   -0.413828D-03
   0   164    0.749330D-03    0.108652D+01    0.249510D+00    0.195798D-02
   0   165    0.779855D-03    0.108558D+01    0.324908D+00    0.442497D-02
   0   166    0.813843D-03    0.108462D+01   -0.541049D+00    0.696092D-02
   0   167    0.828564D-03    0.108374D+01    0.441209D+00    0.921286D-02
   0   168    0.845197D-03    0.108273D+01   -0.835730D-01    0.119161D-01
   0   169    0.861263D-03    0.108173D+01   -0.273564D-01    0.146384D-01
   0   170    0.894843D-03    0.108068D+01   -0.491010D+00    0.172937D-01
   0   171    0.920573D-03    0.107988D+01    0.424245D+00    0.194582D-01
   0   172    0.942347D-03    0.107903D+01    0.508314D+00    0.217231D-01
   0   173    0.973595D-03    0.107806D+01   -0.518332D+00    0.241785D-01
   0   174    0.974310D-03    0.107723D+01    0.592027D+00    0.264136D-01
   0   175    0.101190D-02    0.107645D+01    0.282472D+00    0.283700D-01
   0   176    0.103627D-02    0.107568D+01    0.383434D+00    0.304838D-01
   0   177    0.105539D-02    0.107473D+01    0.502565D-01    0.329510D-01
   0   178    0.110140D-02    0.107387D+01    0.266989D+00    0.351395D-01
   0   179    0.113708D-02    0.107294D+01    0.305766D+00    0.375655D-01
   0   180    0.118281D-02    0.107192D+01   -0.652200D+00    0.401224D-01
   0   181    0.122255D-02    0.107083D+01    0.843636D+00    0.430244D-01
   0   182    0.126932D-02    0.106978D+01    0.243698D-01    0.456397D-01
   0   183    0.133127D-02    0.106882D+01    0.841168D+00    0.482559D-01
   0   184    0.136284D-02    0.106789D+01    0.306665D+00    0.505290D-01
   0   185    0.141264D-02    0.106688D+01   -0.527171D+00    0.530661D-01
   0   186    0.144614D-02    0.106608D+01    0.305697D+00    0.551255D-01
   0   187    0.146988D-02    0.106552D+01    0.570637D+00    0.565336D-01
   0   188    0.154325D-02    0.106475D+01   -0.147402D+00    0.585200D-01
   0   189    0.161092D-02    0.106425D+01    0.797554D+00    0.596886D-01
   0   190    0.172374D-02    0.106390D+01    0.948369D+00    0.605632D-01
   0   191    0.176968D-02    0.106350D+01   -0.306681D+00    0.616577D-01
   0   192    0.184024D-02    0.106342D+01   -0.235424D+00    0.618635D-01
   0   193    0.185062D-02    0.106317D+01   -0.558421D+00    0.625417D-01
   0   194    0.189638D-02    0.106365D+01    0.292797D+00    0.611813D-01
   0   195    0.191101D-02    0.106406D+01   -0.647845D+00    0.601578D-01
   0   196    0.197496D-02    0.106490D+01    0.101216D+01    0.580187D-01
   0   197    0.206538D-02    0.106577D+01   -0.130937D+01    0.558572D-01
   0   198    0.213877D-02    0.106678D+01   -0.618946D-01    0.533856D-01
   0   199    0.227402D-02    0.106791D+01   -0.169274D+01    0.504547D-01
   0   200    0.236903D-02    0.106944D+01   -0.955872D+00    0.465510D-01
   0   201    0.242531D-02    0.107106D+01    0.943322D-01    0.423819D-01
   0   202    0.244252D-02    0.107229D+01    0.166982D+01    0.392228D-01
   0   203    0.246379D-02    0.107379D+01   -0.161118D+01    0.353824D-01
   0   204    0.246103D-02    0.107526D+01    0.111290D+01    0.313907D-01
   0   205    0.251185D-02    0.107718D+01   -0.636239D+00    0.265235D-01
   0   206    0.256177D-02    0.107862D+01   -0.165463D+01    0.227760D-01
   0   207    0.255063D-02    0.108021D+01    0.778359D-01    0.184524D-01
   0   208    0.258896D-02    0.108239D+01    0.132749D+01    0.126064D-01
   0   209    0.258351D-02    0.108409D+01   -0.552839D+00    0.827145D-02
   0   210    0.259971D-02    0.108590D+01    0.124798D+01    0.336341D-02
   0   211    0.265157D-02    0.108787D+01   -0.658306D+00   -0.182941D-02
   0   212    0.269278D-02    0.108993D+01    0.671449D+00   -0.737280D-02
   0   213    0.272931D-02    0.109208D+01   -0.675789D+00   -0.127501D-01
   0   214    0.283249D-02    0.109393D+01    0.977700D+00   -0.179033D-01
   0   215    0.280455D-02    0.109565D+01    0.139013D-01   -0.223253D-01
   0   216    0.284609D-02    0.109693D+01    0.416521D+00   -0.256516D-01
   0   217    0.285167D-02    0.109852D+01   -0.498082D+00   -0.298367D-01
   0   218    0.285550D-02    0.109995D+01    0.131641D+01   -0.335693D-01
   0   219    0.286578D-02    0.110092D+01   -0.231153D+00   -0.358435D-01
   0   220    0.287226D-02    0.110153D+01   -0.149872D+01   -0.376044D-01
   0   221    0.287929D-02    0.110219D+01   -0.746066D-01   -0.394692D-01
   0   222    0.293610D-02    0.110304D+01   -0.165318D+01   -0.416633D-01
   0   223    0.297543D-02    0.110363D+01   -0.164383D+01   -0.427611D-01
   0   224    0.296408D-02    0.110445D+01   -0.202235D+01   -0.448551D-01
   0   225    0.295537D-02    0.110536D+01    0.611886D-01   -0.474854D-01
   0   226    0.300608D-02    0.110599D+01    0.142580D+01   -0.490623D-01
   0   227    0.306152D-02    0.110661D+01    0.121197D+01   -0.507901D-01
   0   228    0.306404D-02    0.110717D+01   -0.688272D+00   -0.518978D-01
   0   229    0.308714D-02    0.110763D+01    0.165306D+01   -0.532691D-01
   0   230    0.311576D-02    0.110834D+01    0.177211D+01   -0.549329D-01
   0   231    0.314300D-02    0.110820D+01    0.558391D+00   -0.547737D-01
   0   232    0.319293D-02    0.110848D+01    0.226333D-01   -0.554865D-01
   0   233    0.329430D-02    0.110859D+01    0.820887D+00   -0.555249D-01
   0   234    0.329557D-02    0.110846D+01   -0.177913D+01   -0.550297D-01
   0   235    0.327137D-02    0.110855D+01    0.616434D-01   -0.553297D-01
   0   236    0.331029D-02    0.110848D+01    0.162040D+01   -0.552221D-01
   0   237    0.341885D-02    0.110852D+01   -0.911664D+00   -0.553669D-01
   0   238    0.342197D-02    0.110803D+01   -0.169709D+01   -0.540333D-01
   0   239    0.344693D-02    0.110784D+01   -0.550636D+00   -0.536892D-01
   0   240    0.345279D-02    0.110748D+01   -0.441096D+00   -0.528945D-01
   0   241    0.349918D-02    0.110704D+01    0.750010D+00   -0.518653D-01
   0   242    0.356699D-02    0.110725D+01    0.117477D+00   -0.520188D-01
   0   243    0.365687D-02    0.110632D+01    0.110941D+01   -0.500005D-01
   0   244    0.370838D-02    0.110632D+01   -0.231645D+01   -0.496671D-01
   0   245    0.371796D-02    0.110576D+01    0.613615D+00   -0.485009D-01
   0   246    0.373102D-02    0.110590D+01   -0.146147D+01   -0.488298D-01
   0   247    0.385128D-02    0.110535D+01    0.232493D+01   -0.472033D-01
   0   248    0.391064D-02    0.110441D+01    0.167207D+01   -0.449095D-01
   0   249    0.394376D-02    0.110368D+01   -0.178747D+01   -0.428328D-01
   0   250    0.408314D-02    0.110276D+01   -0.107669D+01   -0.406463D-01
   0   251    0.417246D-02    0.110221D+01    0.102260D+01   -0.394663D-01
   0   252    0.428289D-02    0.110130D+01   -0.155198D+01   -0.367611D-01
   0   253    0.432431D-02    0.110011D+01    0.208207D+01   -0.337285D-01
   0   254    0.453762D-02    0.109923D+01    0.214404D+00   -0.312936D-01
   0   255    0.456699D-02    0.109807D+01    0.141601D+01   -0.284397D-01
   0   256    0.473115D-02    0.109769D+01    0.101624D+00   -0.275560D-01
   0   257    0.480456D-02    0.109648D+01   -0.137789D+01   -0.243974D-01
   0   258    0.491564D-02    0.109500D+01   -0.705426D+00   -0.201599D-01
   0   259    0.511095D-02    0.109351D+01    0.630690D+00   -0.169016D-01
   0   260    0.514773D-02    0.109197D+01    0.316946D+00   -0.125483D-01
   0   261    0.524119D-02    0.109147D+01    0.196891D+01   -0.109904D-01
   0   262    0.547308D-02    0.109055D+01   -0.102982D+01   -0.873357D-02
   0   263    0.553078D-02    0.108915D+01    0.209974D+01   -0.514784D-02
   0   264    0.563392D-02    0.108839D+01   -0.187869D+01   -0.278322D-02
   0   265    0.578659D-02    0.108730D+01    0.131663D+01   -0.173365D-04
   0   266    0.600311D-02    0.108589D+01   -0.911006D+00    0.348238D-02
   0   267    0.613981D-02    0.108467D+01   -0.614487D+00    0.703495D-02
   0   268    0.641733D-02    0.108320D+01   -0.394785D+01    0.109591D-01
   0   269    0.665786D-02    0.108158D+01    0.196667D-02    0.151649D-01
   0   270    0.704195D-02    0.108020D+01    0.220638D+01    0.189400D-01
   0   271    0.747768D-02    0.107764D+01   -0.339122D+00    0.253820D-01
   0   272    0.771510D-02    0.107591D+01    0.342354D+01    0.300319D-01
   0   273    0.811205D-02    0.107487D+01    0.365515D-01    0.328730D-01
   0   274    0.863880D-02    0.107239D+01    0.937363D+00    0.390601D-01
   0   275    0.897421D-02    0.107095D+01   -0.680698D+01    0.423841D-01
   0   276    0.901837D-02    0.107038D+01    0.466105D+00    0.445751D-01
   0   277    0.949974D-02    0.106899D+01    0.285802D+01    0.479082D-01
   0   278    0.994264D-02    0.106886D+01    0.341689D+01    0.477991D-01
   0   279    0.104617D-01    0.106774D+01   -0.483089D+01    0.506487D-01
   0   280    0.107713D-01    0.106596D+01    0.962787D-01    0.553877D-01
   0   281    0.112498D-01    0.106491D+01   -0.574220D+01    0.578393D-01
   0   282    0.116312D-01    0.106419D+01   -0.223430D+01    0.601657D-01
   0   283    0.120335D-01    0.106418D+01   -0.105959D+01    0.604127D-01
   0   284    0.126862D-01    0.106420D+01   -0.308760D+00    0.593887D-01
   0   285    0.130704D-01    0.106344D+01    0.586690D+01    0.615117D-01
   0   286    0.141753D-01    0.106301D+01   -0.539763D+01    0.630489D-01
   0   287    0.149870D-01    0.106394D+01    0.998761D+01    0.601366D-01
   0   288    0.167414D-01    0.106438D+01    0.660658D+01    0.595194D-01
   0   289    0.175081D-01    0.106662D+01   -0.258026D+01    0.533022D-01
   0   290    0.180205D-01    0.106847D+01   -0.232821D+01    0.486545D-01
   0   291    0.188615D-01    0.107151D+01   -0.116838D+02    0.403228D-01
   0   292    0.188094D-01    0.107291D+01    0.965056D+01    0.382146D-01
   0   293    0.193406D-01    0.107307D+01   -0.108892D+02    0.364714D-01
   0   294    0.197790D-01    0.107581D+01    0.641976D+01    0.298819D-01
   0   295    0.206599D-01    0.107889D+01    0.705194D+01    0.219643D-01
   0   296    0.207507D-01    0.108115D+01   -0.101138D+02    0.157707D-01
   0   297    0.212048D-01    0.108508D+01    0.721770D+01    0.634104D-02
   0   298    0.216871D-01    0.108745D+01    0.103758D+02   -0.167347D-02
   0   299    0.221111D-01    0.108905D+01   -0.686859D+01   -0.361410D-02
   0   300    0.221547D-01    0.109112D+01    0.770825D+01   -0.114728D-01
   0   301    0.226827D-01    0.109244D+01    0.116211D+02   -0.145037D-01
   0   302    0.226892D-01    0.109357D+01   -0.122492D+00   -0.156344D-01
   0   303    0.233443D-01    0.109581D+01   -0.345448D+01   -0.240904D-01
   0   304    0.231395D-01    0.109690D+01    0.127103D+02   -0.255680D-01
   0   305    0.235298D-01    0.109862D+01    0.104931D+02   -0.300071D-01
   0   306    0.241239D-01    0.109961D+01    0.131520D+02   -0.317044D-01
   0   307    0.247775D-01    0.110223D+01    0.133533D+02   -0.393349D-01
   0   308    0.250438D-01    0.110316D+01   -0.609963D+01   -0.427454D-01
   0   309    0.253189D-01    0.110690D+01   -0.595916D+01   -0.504714D-01
   0   310    0.250879D-01    0.110730D+01    0.633916D+01   -0.521233D-01
   0   311    0.256049D-01    0.110628D+01    0.113016D+02   -0.486791D-01
   0   312    0.266802D-01    0.110696D+01    0.435530D+01   -0.530166D-01
   0   313    0.264302D-01    0.110768D+01    0.138611D+02   -0.531531D-01
   0   314    0.268409D-01    0.110811D+01    0.608750D+01   -0.555489D-01
   0   315    0.272925D-01    0.110807D+01    0.167422D+01   -0.552399D-01
   0   316    0.279132D-01    0.110865D+01    0.139341D+02   -0.542170D-01
   0   317    0.286837D-01    0.110780D+01   -0.192695D+02   -0.532821D-01
   0   318    0.290423D-01    0.110750D+01    0.396659D+01   -0.544190D-01
   0   319    0.297446D-01    0.110710D+01   -0.130900D+02   -0.525196D-01
   0   320    0.303765D-01    0.110790D+01    0.138220D+02   -0.545268D-01
   0   321    0.307671D-01    0.110714D+01    0.118560D+02   -0.530595D-01
   0   322    0.316112D-01    0.110547D+01   -0.223058D+01   -0.480632D-01
   0   323    0.331700D-01    0.110468D+01    0.812614D+00   -0.459200D-01
   0   324    0.339043D-01    0.110474D+01   -0.162732D+02   -0.450830D-01
   0   325    0.358590D-01    0.110179D+01   -0.196102D+02   -0.368464D-01
   0   326    0.370573D-01    0.110138D+01   -0.153200D+02   -0.362227D-01
   0   327    0.388005D-01    0.109923D+01    0.156079D+02   -0.327232D-01
   0   328    0.407687D-01    0.109543D+01    0.124481D+02   -0.209692D-01
   0   329    0.424541D-01    0.109278D+01    0.165634D+02   -0.152615D-01
   0   330    0.453082D-01    0.109148D+01   -0.233243D+02   -0.123125D-01
   0   331    0.489116D-01    0.108966D+01    0.157930D+02   -0.850242D-02
   0   332    0.520703D-01    0.108580D+01   -0.321022D+02    0.568082D-02
   0   333    0.557044D-01    0.108327D+01   -0.182236D+02    0.129708D-01
   0   334    0.608491D-01    0.107994D+01   -0.893567D+01    0.178563D-01
   0   335    0.657674D-01    0.108099D+01   -0.374902D+02    0.186386D-01
   0   336    0.723243D-01    0.107596D+01    0.701346D+01    0.321341D-01
   0   337    0.819712D-01    0.107144D+01   -0.383678D+02    0.400614D-01
   0   338    0.898864D-01    0.107720D+01   -0.530303D+02    0.271497D-01
   0   339    0.999611D-01    0.107231D+01    0.252506D+02    0.368491D-01
   0   340    0.108395D+00    0.107514D+01    0.312361D+02    0.325203D-01
   0   341    0.118847D+00    0.108016D+01   -0.256671D+02    0.136716D-01
   0   342    0.130801D+00    0.108396D+01    0.523218D+02    0.116097D-01
   0   343    0.147903D+00    0.108098D+01   -0.773005D+02    0.138549D-01
   0   344    0.164546D+00    0.108809D+01   -0.227734D+02   -0.343412D-02
   0   345    0.175150D+00    0.109539D+01   -0.738672D+02   -0.217180D-01
   0   346    0.180398D+00    0.109907D+01   -0.405454D+02   -0.346639D-01
   0   347    0.192603D+00    0.110731D+01    0.382050D+02   -0.547627D-01
   0   348    0.211637D+00    0.111021D+01    0.776929D+02   -0.634152D-01
   0   349    0.233805D+00    0.111508D+01    0.558796D+02   -0.735152D-01
   0   350    0.258361D+00    0.110849D+01    0.443205D+02   -0.525795D-01
   0   351    0.280520D+00    0.108795D+01   -0.126375D+03    0.648511D-03
   0   352    0.235558D+00    0.997946D+00    0.648801D+02    0.195894D+00
   0   353    0.991214D-01    0.699045D+00    0.159361D+03    0.349410D+00
   0   354    0.279790D-01    0.379688D+00    0.679050D+02    0.378347D+00
   0   355    0.681216D-02    0.181101D+00    0.173193D+02    0.386318D+00
   0   356    0.157816D-02    0.806260D-01    0.231057D+01    0.389169D+00
   0   357    0.353396D-03    0.345549D-01    0.887752D+00    0.390297D+00
   0   358    0.766697D-04    0.144743D-01    0.147833D+00    0.390759D+00
   0   359    0.165136D-04    0.597417D-02    0.421249D-01    0.390949D+00
   0   360    0.352141D-05    0.244144D-02    0.849876D-02    0.391027D+00
   0   361    0.733072D-06    0.991039D-03    0.117025D-02    0.391059D+00
   0   362    0.150672D-06    0.400374D-03    0.296641D-03    0.391072D+00
   0   363    0.306454D-07    0.161192D-03    0.539330D-04    0.391078D+00
   0   364    0.621187D-08    0.647301D-04    0.173762D-04    0.391080D+00
   0   365    0.126063D-08    0.259428D-04    0.253775D-05    0.391081D+00
   0   366    0.260267D-09    0.103816D-04    0.668543D-06    0.391081D+00
   0   367    0.511271D-10    0.414938D-05    0.154344D-06    0.391081D+00
   0   368    0.105004D-10    0.165679D-05    0.281966D-07    0.391081D+00
   0   369    0.210874D-11    0.660976D-06    0.357224D-08    0.391081D+00
   0   370    0.429290D-12    0.263503D-06    0.105568D-08    0.391081D+00
   0   371    0.861382D-13    0.104980D-06    0.172250D-09    0.391081D+00
   0   372    0.171378D-13    0.418003D-07    0.440848D-10    0.391081D+00
   0   373    0.332120D-14    0.166352D-07    0.916690D-11    0.391081D+00
   0   374    0.661740D-15    0.661726D-08    0.149250D-11    0.391081D+00
   0   375    0.129771D-15    0.263117D-08    0.360064D-12    0.391081D+00
   0   376    0.252740D-16    0.104583D-08    0.437002D-13    0.391081D+00
   0   377    0.505741D-17    0.415564D-09    0.103548D-13    0.391081D+00
   0   378    0.995664D-18    0.165079D-09    0.284217D-14    0.391081D+00
   0   379    0.192794D-18    0.655606D-10    0.346552D-15    0.391081D+00
   0   380    0.377115D-19    0.260318D-10    0.783951D-16    0.391081D+00
   0   381    0.750447D-20    0.103345D-10    0.172843D-16    0.391081D+00
   0   382    0.148068D-20    0.410214D-11    0.329268D-17    0.391081D+00
   0   383    0.290695D-21    0.162809D-11    0.780044D-18    0.391081D+00
   0   384    0.571239D-22    0.646102D-12    0.999960D-19    0.391081D+00
   0   385    0.113087D-22    0.256382D-12    0.213856D-19    0.391081D+00
   0   386    0.223890D-23    0.101729D-12    0.641092D-20    0.391081D+00
   0   387    0.445945D-24    0.403626D-13    0.753301D-21    0.391081D+00
   0   388    0.884473D-25    0.160139D-13    0.243690D-21    0.391081D+00
   0   389    0.175272D-25    0.635339D-14    0.366020D-22    0.391081D+00
   0   390    0.336063D-26    0.252062D-14    0.670815D-23    0.391081D+00
   0   391    0.665235D-27    0.100001D-14    0.146105D-23    0.391081D+00
   0   392    0.128893D-27    0.396742D-15    0.313890D-24    0.391081D+00
   0   393    0.259039D-28    0.157404D-15    0.424293D-25    0.391081D+00
   0   394    0.508488D-29    0.624489D-16    0.118697D-25    0.391081D+00
   0   395    0.100598D-29    0.247751D-16    0.210233D-26    0.391081D+00
   0   396    0.198548D-30    0.982494D-17    0.340357D-27    0.391081D+00
   0   397    0.385528D-31    0.388553D-17    0.908231D-28    0.391081D+00