variables =  "IG"  "JG"  "PHI"  "Temp."  "Latent_heat"  "mm"
ZONE  I=  401  J=  101
   0     0    0.100000D+01    0.849697D+00    0.000000D+00    0.309981D+00
   0     1    0.100000D+01    0.849697D+00    0.000000D+00    0.309981D+00
   0     2    0.100000D+01    0.851132D+00    0.000000D+00    0.309406D+00
   0     3    0.100000D+01    0.853986D+00    0.000000D+00    0.308247D+00
   0     4    0.100000D+01    0.858227D+00    0.000000D+00    0.306479D+00
   0     5    0.100000D+01    0.863808D+00    0.000000D+00    0.304066D+00
   0     6    0.100000D+01    0.870669D+00    0.000000D+00    0.300959D+00
   0     7    0.100000D+01    0.878732D+00    0.000000D+00    0.297094D+00
   0     8    0.100000D+01    0.887912D+00    0.000000D+00    0.292387D+00
   0     9    0.100000D+01    0.898107D+00    0.000000D+00    0.286736D+00
   0    10    0.100000D+01    0.909208D+00    0.000000D+00    0.280016D+00
   0    11    0.100000D+01    0.921096D+00    0.000000D+00    0.272075D+00
   0    12    0.100000D+01    0.933645D+00    0.000000D+00    0.262737D+00
   0    13    0.100000D+01    0.946723D+00    0.000000D+00    0.251793D+00
   0    14    0.100000D+01    0.960193D+00    0.000000D+00    0.239014D+00
   0    15    0.100000D+01    0.973917D+00    0.000000D+00    0.224154D+00
   0    16    0.100000D+01    0.987754D+00    0.000000D+00    0.206978D+00
   0    17    0.100000D+01    0.100157D+01    0.000000D+00    0.187298D+00
   0    18    0.100000D+01    0.101521D+01    0.000000D+00    0.165034D+00
   0    19    0.100000D+01    0.102856D+01    0.000000D+00    0.140296D+00
   0    20    0.100000D+01    0.104148D+01    0.000000D+00    0.113459D+00
   0    21    0.100000D+01    0.105384D+01   -0.131268D-09    0.852061D-01
   0    22    0.100000D+01    0.106553D+01   -0.153145D-08    0.564935D-01
   0    23    0.100000D+01    0.107644D+01   -0.296081D-08    0.284169D-01
   0    24    0.100000D+01    0.108646D+01    0.153875D-07    0.202845D-02
   0    25    0.100000D+01    0.109550D+01   -0.240584D-06   -0.218265D-01
   0    26    0.100000D+01    0.110347D+01   -0.495170D-06   -0.425881D-01
   0    27    0.100000D+01    0.111030D+01    0.326943D-04   -0.599694D-01
   0    28    0.999999D+00    0.111592D+01   -0.228724D-03   -0.738851D-01
   0    29    0.999997D+00    0.112026D+01   -0.228194D-02   -0.843663D-01
   0    30    0.999977D+00    0.112328D+01    0.152580D-02   -0.914852D-01
   0    31    0.999844D+00    0.112492D+01    0.321415D-02   -0.953102D-01
   0    32    0.998956D+00    0.112516D+01    0.561157D+00   -0.958653D-01
   0    33    0.993097D+00    0.112392D+01    0.386563D+01   -0.929609D-01
   0    34    0.954610D+00    0.112183D+01    0.211677D+02   -0.879187D-01
   0    35    0.724018D+00    0.111730D+01    0.241759D+02   -0.776854D-01
   0    36    0.114238D+00    0.111501D+01    0.135920D+02   -0.713408D-01
   0    37    0.151482D-01    0.111247D+01   -0.104612D+02   -0.652439D-01
   0    38    0.229335D-02    0.111086D+01   -0.131378D+01   -0.612851D-01
   0    39    0.650766D-03    0.110841D+01    0.384518D+00   -0.551828D-01
   0    40    0.484779D-03    0.110515D+01   -0.323395D+00   -0.468418D-01
   0    41    0.539197D-03    0.110126D+01    0.274320D+00   -0.368417D-01
   0    42    0.738306D-03    0.109676D+01   -0.666875D+00   -0.251251D-01
   0    43    0.118479D-02    0.109272D+01   -0.328470D-01   -0.144524D-01
   0    44    0.212152D-02    0.109031D+01   -0.364893D+00   -0.820163D-02
   0    45    0.335624D-02    0.109163D+01    0.189270D+01   -0.114511D-01
   0    46    0.401257D-02    0.109522D+01    0.174717D+01   -0.211768D-01
   0    47    0.409034D-02    0.109906D+01   -0.244486D+01   -0.311658D-01
   0    48    0.395769D-02    0.110220D+01   -0.104232D+01   -0.390958D-01
   0    49    0.386908D-02    0.110424D+01   -0.431470D+00   -0.444179D-01
   0    50    0.382706D-02    0.110493D+01   -0.206221D+00   -0.465828D-01
   0    51    0.384423D-02    0.110505D+01    0.197976D+01   -0.466413D-01
   0    52    0.386475D-02    0.110436D+01   -0.108854D+01   -0.449387D-01
   0    53    0.392575D-02    0.110364D+01   -0.813702D+00   -0.428226D-01
   0    54    0.402658D-02    0.110305D+01   -0.624820D+00   -0.413468D-01
   0    55    0.418008D-02    0.110179D+01    0.828351D+00   -0.384246D-01
   0    56    0.426895D-02    0.110059D+01   -0.928669D+00   -0.351966D-01
   0    57    0.436823D-02    0.109949D+01   -0.215284D+01   -0.321096D-01
   0    58    0.454964D-02    0.109830D+01   -0.676743D+00   -0.293736D-01
   0    59    0.473380D-02    0.109702D+01    0.229615D+01   -0.255245D-01
   0    60    0.485085D-02    0.109585D+01   -0.153996D+01   -0.226541D-01
   0    61    0.503497D-02    0.109446D+01   -0.167355D+01   -0.188423D-01
   0    62    0.516280D-02    0.109226D+01    0.232020D+01   -0.133075D-01
   0    63    0.528316D-02    0.109118D+01    0.144353D+01   -0.999659D-02
   0    64    0.545875D-02    0.108988D+01    0.356299D+01   -0.701331D-02
   0    65    0.567151D-02    0.108779D+01   -0.256117D+01   -0.165652D-02
   0    66    0.599403D-02    0.108631D+01   -0.129866D+00    0.235736D-02
   0    67    0.611385D-02    0.108486D+01    0.170341D+01    0.599265D-02
   0    68    0.639941D-02    0.108399D+01    0.248637D+01    0.829723D-02
   0    69    0.662145D-02    0.108236D+01    0.332660D+01    0.124131D-01
   0    70    0.689806D-02    0.108063D+01   -0.252366D+01    0.171836D-01
   0    71    0.711146D-02    0.107839D+01    0.146928D+01    0.236378D-01
   0    72    0.739128D-02    0.107687D+01   -0.258989D+01    0.277521D-01
   0    73    0.758331D-02    0.107525D+01   -0.275452D+01    0.312505D-01
   0    74    0.806817D-02    0.107360D+01   -0.530978D+00    0.356279D-01
   0    75    0.842035D-02    0.107235D+01   -0.342077D+01    0.391504D-01
   0    76    0.895967D-02    0.107067D+01    0.851821D+00    0.436666D-01
   0    77    0.940946D-02    0.106924D+01   -0.393968D+01    0.468180D-01
   0    78    0.101621D-01    0.106761D+01   -0.646168D+01    0.516413D-01
   0    79    0.106139D-01    0.106648D+01    0.282086D+01    0.537648D-01
   0    80    0.114008D-01    0.106471D+01   -0.286623D+01    0.589171D-01
   0    81    0.122424D-01    0.106463D+01    0.104896D+01    0.593819D-01
   0    82    0.129513D-01    0.106336D+01    0.629538D+01    0.619982D-01
   0    83    0.138428D-01    0.106262D+01   -0.656400D+01    0.636222D-01
   0    84    0.149573D-01    0.106330D+01    0.426795D+01    0.624625D-01
   0    85    0.154607D-01    0.106334D+01   -0.347690D+01    0.628787D-01
   0    86    0.162990D-01    0.106378D+01   -0.604625D+00    0.613214D-01
   0    87    0.166141D-01    0.106584D+01   -0.496956D+01    0.562475D-01
   0    88    0.174420D-01    0.106742D+01    0.416077D+01    0.514609D-01
   0    89    0.179132D-01    0.107058D+01    0.100450D+02    0.446135D-01
   0    90    0.187111D-01    0.107340D+01    0.274182D+01    0.364501D-01
   0    91    0.195855D-01    0.107452D+01   -0.658871D+01    0.345245D-01
   0    92    0.197007D-01    0.107583D+01    0.229289D+01    0.296087D-01
   0    93    0.198557D-01    0.107898D+01    0.322111D+01    0.216058D-01
   0    94    0.203803D-01    0.108028D+01   -0.103166D+01    0.176151D-01
   0    95    0.214084D-01    0.108386D+01   -0.779370D+01    0.980939D-02
   0    96    0.215694D-01    0.108608D+01   -0.102090D+02    0.309061D-02
   0    97    0.223162D-01    0.108926D+01    0.179895D+01   -0.569033D-02
   0    98    0.225270D-01    0.109131D+01   -0.703073D+01   -0.106993D-01
   0    99    0.225839D-01    0.109403D+01   -0.810838D+01   -0.168020D-01
   0   100    0.230941D-01    0.109662D+01   -0.666657D+01   -0.253638D-01
   0   101    0.235674D-01    0.109834D+01   -0.537785D+00   -0.306022D-01
   0   102    0.240075D-01    0.110088D+01   -0.142004D+02   -0.348323D-01
   0   103    0.243043D-01    0.110189D+01    0.107547D+02   -0.383368D-01
   0   104    0.246221D-01    0.110324D+01   -0.122889D+02   -0.427687D-01
   0   105    0.253957D-01    0.110503D+01    0.128678D+02   -0.469359D-01
   0   106    0.257394D-01    0.110694D+01   -0.307786D+01   -0.518364D-01
   0   107    0.259949D-01    0.110713D+01    0.187258D+01   -0.519354D-01
   0   108    0.263536D-01    0.110756D+01    0.274186D+01   -0.528349D-01
   0   109    0.272645D-01    0.110778D+01    0.280394D+00   -0.542938D-01
   0   110    0.277837D-01    0.110840D+01   -0.308678D+01   -0.557826D-01
   0   111    0.282898D-01    0.110925D+01    0.581665D+01   -0.573964D-01
   0   112    0.289027D-01    0.110784D+01    0.175155D+02   -0.528751D-01
   0   113    0.299671D-01    0.110827D+01   -0.284456D+01   -0.540853D-01
   0   114    0.304889D-01    0.110543D+01   -0.128806D+02   -0.486808D-01
   0   115    0.311176D-01    0.110833D+01   -0.451874D+01   -0.537771D-01
   0   116    0.319064D-01    0.110607D+01   -0.302505D+01   -0.497143D-01
   0   117    0.332114D-01    0.110368D+01    0.165164D+01   -0.438296D-01
   0   118    0.351117D-01    0.110226D+01   -0.197077D+02   -0.393363D-01
   0   119    0.367127D-01    0.110056D+01    0.122067D+02   -0.352081D-01
   0   120    0.382965D-01    0.110009D+01    0.928353D+00   -0.324409D-01
   0   121    0.407027D-01    0.109616D+01    0.154244D+02   -0.231739D-01
   0   122    0.439848D-01    0.109364D+01   -0.820897D+01   -0.158263D-01
   0   123    0.463972D-01    0.109106D+01    0.173533D+02   -0.985549D-02
   0   124    0.496091D-01    0.108728D+01   -0.168661D+02    0.258350D-02
   0   125    0.541947D-01    0.108712D+01   -0.118852D+02    0.192698D-02
   0   126    0.594279D-01    0.108138D+01    0.690536D+01    0.148277D-01
   0   127    0.657192D-01    0.107956D+01   -0.634769D+01    0.203775D-01
   0   128    0.743959D-01    0.107780D+01   -0.579088D+02    0.235928D-01
   0   129    0.848984D-01    0.107394D+01   -0.207166D+02    0.360014D-01
   0   130    0.945512D-01    0.107333D+01    0.386343D+01    0.345231D-01
   0   131    0.103875D+00    0.107179D+01    0.101313D+02    0.413310D-01
   0   132    0.111376D+00    0.107489D+01    0.146085D+02    0.336014D-01
   0   133    0.121023D+00    0.107531D+01    0.199729D+02    0.324179D-01
   0   134    0.130625D+00    0.107821D+01   -0.832187D+02    0.223392D-01
   0   135    0.144104D+00    0.108394D+01    0.198670D+02    0.845817D-02
   0   136    0.159730D+00    0.108812D+01   -0.549007D+01   -0.661888D-02
   0   137    0.174639D+00    0.109650D+01   -0.460733D+02   -0.270842D-01
   0   138    0.184285D+00    0.109918D+01   -0.532350D+01   -0.355002D-01
   0   139    0.194915D+00    0.110110D+01   -0.109363D+02   -0.401274D-01
   0   140    0.212262D+00    0.110847D+01   -0.841709D+02   -0.569376D-01
   0   141    0.220503D+00    0.111274D+01    0.444167D+02   -0.646825D-01
   0   142    0.242491D+00    0.111606D+01   -0.783444D+02   -0.748290D-01
   0   143    0.271125D+00    0.111095D+01    0.466268D+02   -0.589121D-01
   0   144    0.288292D+00    0.107240D+01   -0.647772D+02    0.384409D-01
   0   145    0.201972D+00    0.945966D+00    0.246974D+03    0.255064D+00
   0   146    0.720743D-01    0.612436D+00    0.128245D+03    0.360914D+00
   0   147    0.196303D-01    0.317361D+00    0.294273D+02    0.381283D+00
   0   148    0.469900D-02    0.147691D+00    0.703534D+01    0.387331D+00
   0   149    0.107123D-02    0.648088D-01    0.253936D+01    0.389567D+00
   0   150    0.239554D-03    0.275026D-01    0.359492D+00    0.390461D+00
   0   151    0.526567D-04    0.114308D-01    0.890615D-01    0.390827D+00
   0   152    0.109731D-04    0.468820D-02    0.224529D-01    0.390978D+00
   0   153    0.233794D-05    0.190591D-02    0.459538D-02    0.391039D+00
   0   154    0.491268D-06    0.770188D-03    0.118459D-02    0.391064D+00
   0   155    0.998272D-07    0.309905D-03    0.209705D-03    0.391074D+00
   0   156    0.206688D-07    0.124305D-03    0.408898D-04    0.391078D+00
   0   157    0.420297D-08    0.497403D-04    0.684980D-05    0.391080D+00
   0   158    0.842109D-09    0.198666D-04    0.245569D-05    0.391081D+00
   0   159    0.169664D-09    0.792343D-05    0.379517D-06    0.391081D+00
   0   160    0.343655D-10    0.315656D-05    0.625674D-07    0.391081D+00
   0   161    0.684720D-11    0.125643D-05    0.124114D-07    0.391081D+00
   0   162    0.137448D-11    0.499775D-06    0.227156D-08    0.391081D+00
   0   163    0.276736D-12    0.198701D-06    0.672187D-09    0.391081D+00
   0   164    0.543520D-13    0.789727D-07    0.141117D-09    0.391081D+00
   0   165    0.109633D-13    0.313803D-07    0.268718D-10    0.391081D+00
   0   166    0.214340D-14    0.124676D-07    0.352435D-11    0.391081D+00
   0   167    0.420349D-15    0.495326D-08    0.111624D-11    0.391081D+00
   0   168    0.839650D-16    0.196793D-08    0.134698D-12    0.391081D+00
   0   169    0.168273D-16    0.781921D-09    0.298117D-13    0.391081D+00
   0   170    0.326425D-17    0.310722D-09    0.579029D-14    0.391081D+00
   0   171    0.640923D-18    0.123496D-09    0.169013D-14    0.391081D+00
   0   172    0.127273D-18    0.490934D-10    0.319365D-15    0.391081D+00
   0   173    0.246898D-19    0.195206D-10    0.515490D-16    0.391081D+00
   0   174    0.495370D-20    0.776374D-11    0.813442D-17    0.391081D+00
   0   175    0.960977D-21    0.308864D-11    0.159766D-17    0.391081D+00
   0   176    0.187109D-21    0.122909D-11    0.455489D-18    0.391081D+00
   0   177    0.368633D-22    0.489250D-12    0.673239D-19    0.391081D+00
   0   178    0.724298D-23    0.194808D-12    0.196554D-19    0.391081D+00
   0   179    0.143797D-23    0.775911D-13    0.384089D-20    0.391081D+00
   0   180    0.284977D-24    0.309135D-13    0.549197D-21    0.391081D+00
   0   181    0.556021D-25    0.123200D-13    0.143919D-21    0.391081D+00
   0   182    0.106429D-25    0.491137D-14    0.258542D-22    0.391081D+00
   0   183    0.211322D-26    0.195847D-14    0.548966D-23    0.391081D+00
   0   184    0.410471D-27    0.781181D-15    0.109161D-23    0.391081D+00
   0   185    0.803610D-28    0.311675D-15    0.202572D-24    0.391081D+00
   0   186    0.156350D-28    0.124384D-15    0.381026D-25    0.391081D+00
   0   187    0.311640D-29    0.496514D-16    0.698891D-26    0.391081D+00
   0   188    0.611300D-30    0.198245D-16    0.131814D-26    0.391081D+00
   0   189    0.117836D-30    0.791717D-17    0.320836D-27    0.391081D+00
   0   190    0.228829D-31    0.316250D-17    0.644796D-28    0.391081D+00
   0   191    0.443383D-32    0.126351D-17    0.100598D-28    0.391081D+00
   0   192    0.855151D-33    0.504908D-18    0.219882D-29    0.391081D+00
   0   193    0.164040D-33    0.201801D-18    0.369593D-30    0.391081D+00
   0   194    0.326174D-34    0.806693D-19    0.737941D-31    0.391081D+00
   0   195    0.641736D-35    0.322525D-19    0.131022D-31    0.391081D+00
   0   196    0.126637D-35    0.128968D-19    0.289221D-32    0.391081D+00
   0   197    0.248338D-36    0.515777D-20    0.407499D-33    0.391081D+00
   0   198    0.468250D-37    0.206299D-20    0.131472D-33    0.391081D+00
   0   199    0.938352D-38    0.825246D-21    0.258737D-34    0.391081D+00
   0   200    0.184587D-38    0.330153D-21    0.441180D-35    0.391081D+00
   0   201    0.366583D-39    0.132095D-21    0.976794D-36    0.391081D+00
   0   202    0.711475D-40    0.528561D-22    0.162863D-36    0.391081D+00
   0   203    0.135021D-40    0.211511D-22    0.333067D-37    0.391081D+00
   0   204    0.264511D-41    0.846437D-23    0.566390D-38    0.391081D+00
   0   205    0.511655D-42    0.338747D-23    0.121991D-38    0.391081D+00
   0   206    0.100578D-42    0.135572D-23    0.279678D-39    0.391081D+00
   0   207    0.197022D-43    0.542591D-24    0.411330D-40    0.391081D+00
   0   208    0.379278D-44    0.217159D-24    0.830123D-41    0.391081D+00
   0   209    0.747969D-45    0.869116D-25    0.175609D-41    0.391081D+00
   0   210    0.149460D-45    0.347831D-25    0.275297D-42    0.391081D+00
   0   211    0.292488D-46    0.139202D-25    0.620375D-43    0.391081D+00
   0   212    0.555068D-47    0.557056D-26    0.125295D-43    0.391081D+00
   0   213    0.110094D-47    0.222909D-26    0.295630D-44    0.391081D+00
   0   214    0.214269D-48    0.891919D-27    0.534288D-45    0.391081D+00
   0   215    0.420978D-49    0.356851D-27    0.104221D-45    0.391081D+00
   0   216    0.822655D-50    0.142760D-27    0.208459D-46    0.391081D+00
   0   217    0.159159D-50    0.571059D-28    0.330796D-47    0.391081D+00
   0   218    0.313425D-51    0.228405D-28    0.858775D-48    0.391081D+00
   0   219    0.612547D-52    0.913434D-29    0.974780D-49    0.391081D+00
   0   220    0.123504D-52    0.365250D-29    0.227877D-49    0.391081D+00
   0   221    0.236129D-53    0.146030D-29    0.481411D-50    0.391081D+00
   0   222    0.462494D-54    0.583758D-30    0.115363D-50    0.391081D+00
   0   223    0.880802D-55    0.233321D-30    0.197495D-51    0.391081D+00
   0   224    0.174613D-55    0.932411D-31    0.418755D-52    0.391081D+00
   0   225    0.342564D-56    0.372553D-31    0.644491D-53    0.391081D+00
   0   226    0.658315D-57    0.148831D-31    0.154193D-53    0.391081D+00
   0   227    0.127513D-57    0.594461D-32    0.219023D-54    0.391081D+00
   0   228    0.252684D-58    0.237397D-32    0.651125D-55    0.391081D+00
   0   229    0.490759D-59    0.947863D-33    0.108164D-55    0.391081D+00
   0   230    0.962191D-60    0.378384D-33    0.170371D-56    0.391081D+00
   0   231    0.188379D-60    0.151021D-33    0.487588D-57    0.391081D+00
   0   232    0.367647D-61    0.602634D-34    0.757686D-58    0.391081D+00
   0   233    0.726340D-62    0.240426D-34    0.171859D-58    0.391081D+00
   0   234    0.140346D-62    0.959004D-35    0.375513D-59    0.391081D+00
   0   235    0.280549D-63    0.382442D-35    0.701464D-60    0.391081D+00
   0   236    0.543406D-64    0.152481D-35    0.119201D-60    0.391081D+00
   0   237    0.107086D-64    0.607810D-36    0.214092D-61    0.391081D+00
   0   238    0.212080D-65    0.242225D-36    0.494342D-62    0.391081D+00
   0   239    0.411968D-66    0.965091D-37    0.111328D-62    0.391081D+00
   0   240    0.809987D-67    0.384425D-37    0.152476D-63    0.391081D+00
   0   241    0.158778D-67    0.153089D-37    0.345640D-64    0.391081D+00
   0   242    0.308560D-68    0.609486D-38    0.675201D-65    0.391081D+00
   0   243    0.605925D-69    0.242587D-38    0.129493D-65    0.391081D+00
   0   244    0.116192D-69    0.965270D-39    0.205958D-66    0.391081D+00
   0   245    0.224455D-70    0.383977D-39    0.551928D-67    0.391081D+00
   0   246    0.435184D-71    0.152697D-39    0.910169D-68    0.391081D+00
   0   247    0.848968D-72    0.607048D-40    0.234867D-68    0.391081D+00
   0   248    0.165602D-72    0.241253D-40    0.330285D-69    0.391081D+00
   0   249    0.322288D-73    0.958469D-41    0.691764D-70    0.391081D+00
   0   250    0.633994D-74    0.380654D-41    0.145652D-70    0.391081D+00
   0   251    0.123811D-74    0.151120D-41    0.331326D-71    0.391081D+00
   0   252    0.247156D-75    0.599723D-42    0.552220D-72    0.391081D+00
   0   253    0.469411D-76    0.237906D-42    0.116870D-72    0.391081D+00
   0   254    0.911618D-77    0.943363D-43    0.157328D-73    0.391081D+00
   0   255    0.181668D-77    0.373907D-43    0.301661D-74    0.391081D+00
   0   256    0.358551D-78    0.148133D-43    0.848371D-75    0.391081D+00
   0   257    0.702404D-79    0.586589D-44    0.168881D-75    0.391081D+00
   0   258    0.139852D-79    0.232167D-44    0.349619D-76    0.391081D+00
   0   259    0.266721D-80    0.918422D-45    0.723858D-77    0.391081D+00
   0   260    0.516217D-81    0.363119D-45    0.114129D-77    0.391081D+00
   0   261    0.101895D-81    0.143486D-45    0.263386D-78    0.391081D+00
   0   262    0.198669D-82    0.566648D-46    0.384443D-79    0.391081D+00
   0   263    0.392222D-83    0.223640D-46    0.603168D-80    0.391081D+00
   0   264    0.770641D-84    0.882075D-47    0.177942D-80    0.391081D+00
   0   265    0.149977D-84    0.347672D-47    0.432830D-81    0.391081D+00
   0   266    0.295925D-85    0.136940D-47    0.762346D-82    0.391081D+00
   0   267    0.585916D-86    0.538982D-48    0.153806D-82    0.391081D+00
   0   268    0.115428D-86    0.211977D-48    0.295982D-83    0.391081D+00
   0   269    0.229572D-87    0.833031D-49    0.486355D-84    0.391081D+00
   0   270    0.447753D-88    0.327097D-49    0.125976D-84    0.391081D+00
   0   271    0.876835D-89    0.128329D-49    0.188157D-85    0.391081D+00
   0   272    0.172054D-89    0.503021D-50    0.441761D-86    0.391081D+00
   0   273    0.332009D-90    0.196994D-50    0.982298D-87    0.391081D+00
   0   274    0.645630D-91    0.770740D-51    0.182657D-87    0.391081D+00
   0   275    0.126625D-91    0.301258D-51    0.329467D-88    0.391081D+00
   0   276    0.248998D-92    0.117633D-51    0.569487D-89    0.391081D+00
   0   277    0.486627D-93    0.458848D-52    0.991766D-90    0.391081D+00
   0   278    0.965729D-94    0.178789D-52    0.223809D-90    0.391081D+00
   0   279    0.191863D-94    0.695876D-53    0.371608D-91    0.391081D+00
   0   280    0.377505D-95    0.270538D-53    0.806458D-92    0.391081D+00
   0   281    0.734442D-96    0.105055D-53    0.133841D-92    0.391081D+00
   0   282    0.145095D-96    0.407457D-54    0.271422D-93    0.391081D+00
   0   283    0.286483D-97    0.157838D-54    0.598773D-94    0.391081D+00
   0   284    0.557826D-98    0.610653D-55    0.116717D-94    0.391081D+00
   0   285    0.108607D-98    0.235947D-55    0.283439D-95    0.391081D+00
   0   286    0.212294D-99    0.910459D-56    0.404293D-96    0.391081D+00
   0   287    0.426318-100    0.350847D-56    0.109825D-96    0.391081D+00
   0   288    0.838739-101    0.135013D-56    0.179205D-97    0.391081D+00
   0   289    0.162227-101    0.518827D-57    0.441692D-98    0.391081D+00
   0   290    0.320155-102    0.199088D-57    0.605682D-99    0.391081D+00
   0   291    0.624848-103    0.762836D-58    0.148976D-99    0.391081D+00
   0   292    0.122143-103    0.291858D-58    0.247795-100    0.391081D+00
   0   293    0.241918-104    0.111494D-58    0.373382-101    0.391081D+00
   0   294    0.477583-105    0.425271D-59    0.112602-101    0.391081D+00
   0   295    0.920617-106    0.161957D-59    0.166874-102    0.391081D+00
   0   296    0.182657-106    0.615806D-60    0.390505-103    0.391081D+00
   0   297    0.347927-107    0.233770D-60    0.618704-104    0.391081D+00
   0   298    0.690272-108    0.885981D-61    0.151175-104    0.391081D+00
   0   299    0.135408-108    0.335229D-61    0.271261-105    0.391081D+00
   0   300    0.263819-109    0.126629D-61    0.736273-106    0.391081D+00
   0   301    0.524114-110    0.477514D-62    0.936136-107    0.391081D+00
   0   302    0.103065-110    0.179761D-62    0.202068-107    0.391081D+00
   0   303    0.205623-111    0.675543D-63    0.314603-108    0.391081D+00
   0   304    0.409203-112    0.253425D-63    0.890954-109    0.391081D+00
   0   305    0.788841-113    0.949026D-64    0.147238-109    0.391081D+00
   0   306    0.154424-113    0.354757D-64    0.349642-110    0.391081D+00
   0   307    0.300354-114    0.132374D-64    0.721566-111    0.391081D+00
   0   308    0.589505-115    0.493041D-65    0.120519-111    0.391081D+00
   0   309    0.117123-115    0.183303D-65    0.311545-112    0.391081D+00
   0   310    0.226909-116    0.680225D-66    0.580819-113    0.391081D+00
   0   311    0.446892-117    0.251958D-66    0.768856-114    0.391081D+00
   0   312    0.887750-118    0.931515D-67    0.135059-114    0.391081D+00
   0   313    0.172030-118    0.343742D-67    0.397247-115    0.391081D+00
   0   314    0.348639-119    0.126605D-67    0.775783-116    0.391081D+00
   0   315    0.674984-120    0.465413D-68    0.174519-116    0.391081D+00
   0   316    0.131299-120    0.170762D-68    0.229190-117    0.391081D+00
   0   317    0.260099-121    0.625326D-69    0.701937-118    0.391081D+00
   0   318    0.499065-122    0.228548D-69    0.100204-118    0.391081D+00
   0   319    0.994693-123    0.833679D-70    0.145540-119    0.391081D+00
   0   320    0.193904-123    0.303507D-70    0.315253-120    0.391081D+00
   0   321    0.383142-124    0.110277D-70    0.676034-121    0.391081D+00
   0   322    0.738232-125    0.399888D-71    0.190224-121    0.391081D+00
   0   323    0.142983-125    0.144720D-71    0.313136-122    0.391081D+00
   0   324    0.280955-126    0.522701D-72    0.773243-123    0.391081D+00
   0   325    0.548101-127    0.188412D-72    0.125469-123    0.391081D+00
   0   326    0.108931-127    0.677782D-73    0.201800-124    0.391081D+00
   0   327    0.213371-128    0.243330D-73    0.564867-125    0.391081D+00
   0   328    0.422610-129    0.871813D-74    0.116584-125    0.391081D+00
   0   329    0.839321-130    0.311723D-74    0.210192-126    0.391081D+00
   0   330    0.164132-130    0.111232D-74    0.285441-127    0.391081D+00
   0   331    0.319019-131    0.396103D-75    0.530277-128    0.391081D+00
   0   332    0.622565-132    0.140765D-75    0.102371-128    0.391081D+00
   0   333    0.124107-132    0.499222D-76    0.286325-129    0.391081D+00
   0   334    0.240579-133    0.176685D-76    0.459243-130    0.391081D+00
   0   335    0.472537-134    0.624036D-77    0.965971-131    0.391081D+00
   0   336    0.924186-135    0.219950D-77    0.169363-131    0.391081D+00
   0   337    0.180838-135    0.773646D-78    0.316200-132    0.391081D+00
   0   338    0.350990-136    0.271557D-78    0.963856-133    0.391081D+00
   0   339    0.707593-137    0.951213D-79    0.115117-133    0.391081D+00
   0   340    0.140130-137    0.332501D-79    0.214967-134    0.391081D+00
   0   341    0.272242-138    0.115986D-79    0.751549-135    0.391081D+00
   0   342    0.537820-139    0.403751D-80    0.115956-135    0.391081D+00
   0   343    0.104134-139    0.140254D-80    0.268785-136    0.391081D+00
   0   344    0.201903-140    0.486196D-81    0.385932-137    0.391081D+00
   0   345    0.397459-141    0.168190D-81    0.882015-138    0.391081D+00
   0   346    0.768470-142    0.580604D-82    0.153217-138    0.391081D+00
   0   347    0.150019-142    0.200009D-82    0.338684-139    0.391081D+00
   0   348    0.291798-143    0.687562D-83    0.634467-140    0.391081D+00
   0   349    0.564462-144    0.235864D-83    0.119791-140    0.391081D+00
   0   350    0.110220-144    0.807424D-84    0.289098-141    0.391081D+00
   0   351    0.219337-145    0.275823D-84    0.508370-142    0.391081D+00
   0   352    0.428509-146    0.940256D-85    0.915405-143    0.391081D+00
   0   353    0.834260-147    0.319852D-85    0.171564-143    0.391081D+00
   0   354    0.163855-147    0.108578D-85    0.336252-144    0.391081D+00
   0   355    0.321076-148    0.367806D-86    0.654986-145    0.391081D+00
   0   356    0.634028-149    0.124332D-86    0.107066-145    0.391081D+00
   0   357    0.123943-149    0.419406D-87    0.220865-146    0.391081D+00
   0   358    0.245153-150    0.141180D-87    0.553274-147    0.391081D+00
   0   359    0.486838-151    0.474239D-88    0.832922-148    0.391081D+00
   0   360    0.963196-152    0.158967D-88    0.183369-148    0.391081D+00
   0   361    0.184451-152    0.531747D-89    0.519021-149    0.391081D+00
   0   362    0.362667-153    0.177496D-89    0.565208-150    0.391081D+00
   0   363    0.705711-154    0.591232D-90    0.176378-150    0.391081D+00
   0   364    0.138884-154    0.196524D-90    0.385659-151    0.391081D+00
   0   365    0.270878-155    0.651866D-91    0.655757-152    0.391081D+00
   0   366    0.532207-156    0.215769D-91    0.105667-152    0.391081D+00
   0   367    0.105855-156    0.712700D-92    0.237378-153    0.391081D+00
   0   368    0.203930-157    0.234916D-92    0.571181-154    0.391081D+00
   0   369    0.395281-158    0.772691D-93    0.101944-154    0.391081D+00
   0   370    0.774192-159    0.253622D-93    0.167071-155    0.391081D+00
   0   371    0.151651-159    0.830725D-94    0.356391-156    0.391081D+00
   0   372    0.298573-160    0.271529D-94    0.725082-157    0.391081D+00
   0   373    0.581698-161    0.885655D-95    0.126912-157    0.391081D+00
   0   374    0.114479-161    0.288272D-95    0.227585-158    0.391081D+00
   0   375    0.222912-162    0.936335D-96    0.544832-159    0.391081D+00
   0   376    0.435007-163    0.303494D-96    0.866228-160    0.391081D+00
   0   377    0.852872-164    0.981660D-97    0.149915-160    0.391081D+00
   0   378    0.166720-164    0.316857D-97    0.355394-161    0.391081D+00
   0   379    0.328442-165    0.102061D-97    0.791704-162    0.391081D+00
   0   380    0.632139-166    0.328055D-98    0.172431-162    0.391081D+00
   0   381    0.123133-166    0.105227D-98    0.327899-163    0.391081D+00
   0   382    0.238002-167    0.336825D-99    0.542342-164    0.391081D+00
   0   383    0.469035-168    0.107591D-99    0.729078-165    0.391081D+00
   0   384    0.902780-169    0.342959-100    0.168871-165    0.391081D+00
   0   385    0.176506-169    0.109095-100    0.430290-166    0.391081D+00
   0   386    0.352505-170    0.346310-101    0.828636-167    0.391081D+00
   0   387    0.688196-171    0.109704-101    0.123168-167    0.391081D+00
   0   388    0.137038-171    0.346800-102    0.226630-168    0.391081D+00
   0   389    0.267002-172    0.109405-102    0.427540-169    0.391081D+00
   0   390    0.522159-173    0.344422-103    0.113454-169    0.391081D+00
   0   391    0.101569-173    0.108205-103    0.221628-170    0.391081D+00
   0   392    0.198061-174    0.339238-104    0.374019-171    0.391081D+00
   0   393    0.392461-175    0.106137-104    0.908768-172    0.391081D+00
   0   394    0.767699-176    0.331382-105    0.187159-172    0.391081D+00
   0   395    0.150912-176    0.103251-105    0.401167-173    0.391081D+00
   0   396    0.293693-177    0.321021-106    0.806739-174    0.391081D+00
   0   397    0.570573-178    0.995350-107    0.122430-174    0.391081D+00