variables =  "IG"  "JG"  "PHI"  "Temp."  "Latent_heat"  "mm"
ZONE  I=  401  J=  101
   0     0    0.100000D+01    0.715912D+00    0.000000D+00    0.345781D+00
   0     1    0.100000D+01    0.715912D+00    0.000000D+00    0.345781D+00
   0     2    0.100000D+01    0.719163D+00    0.000000D+00    0.345195D+00
   0     3    0.100000D+01    0.725612D+00    0.000000D+00    0.344003D+00
   0     4    0.100000D+01    0.735155D+00    0.000000D+00    0.342166D+00
   0     5    0.100000D+01    0.747639D+00    0.000000D+00    0.339618D+00
   0     6    0.100000D+01    0.762866D+00    0.000000D+00    0.336268D+00
   0     7    0.100000D+01    0.780598D+00    0.000000D+00    0.331985D+00
   0     8    0.100000D+01    0.800565D+00    0.000000D+00    0.326593D+00
   0     9    0.100000D+01    0.822467D+00    0.000000D+00    0.319853D+00
   0    10    0.100000D+01    0.845986D+00    0.000000D+00    0.311437D+00
   0    11    0.100000D+01    0.870789D+00    0.000000D+00    0.300901D+00
   0    12    0.100000D+01    0.896540D+00    0.000000D+00    0.287633D+00
   0    13    0.100000D+01    0.922899D+00    0.000000D+00    0.270793D+00
   0    14    0.100000D+01    0.949537D+00    0.000000D+00    0.249253D+00
   0    15    0.100000D+01    0.976133D+00    0.000000D+00    0.221553D+00
   0    16    0.100000D+01    0.100238D+01    0.000000D+00    0.186033D+00
   0    17    0.100000D+01    0.102801D+01    0.000000D+00    0.141364D+00
   0    18    0.100000D+01    0.105274D+01    0.000000D+00    0.877992D-01
   0    19    0.100000D+01    0.107634D+01   -0.145853D-10    0.286560D-01
   0    20    0.100000D+01    0.109859D+01   -0.875117D-10   -0.299386D-01
   0    21    0.100000D+01    0.111929D+01   -0.656338D-09   -0.820692D-01
   0    22    0.100000D+01    0.113827D+01   -0.901371D-08   -0.124810D+00
   0    23    0.100000D+01    0.115535D+01   -0.847988D-07   -0.158152D+00
   0    24    0.100000D+01    0.117040D+01   -0.145853D-08   -0.183465D+00
   0    25    0.100000D+01    0.118326D+01   -0.942107D-06   -0.202337D+00
   0    26    0.100000D+01    0.119380D+01    0.460892D-05   -0.216092D+00
   0    27    0.100000D+01    0.120187D+01   -0.236871D-04   -0.225691D+00
   0    28    0.999999D+00    0.120732D+01    0.102877D-03   -0.231756D+00
   0    29    0.999996D+00    0.120999D+01    0.158612D-02   -0.234606D+00
   0    30    0.999981D+00    0.120967D+01    0.111112D-01   -0.234273D+00
   0    31    0.999905D+00    0.120612D+01    0.486957D-01   -0.230452D+00
   0    32    0.999499D+00    0.119900D+01    0.174270D+00   -0.222370D+00
   0    33    0.997311D+00    0.118776D+01   -0.375405D+00   -0.208383D+00
   0    34    0.985058D+00    0.117164D+01   -0.703719D+01   -0.185302D+00
   0    35    0.915637D+00    0.115096D+01   -0.602710D+02   -0.150265D+00
   0    36    0.565382D+00    0.112496D+01   -0.568577D+02   -0.990221D-01
   0    37    0.940711D-01    0.111746D+01    0.127751D+02   -0.776918D-01
   0    38    0.158509D-01    0.111284D+01   -0.511089D+01   -0.662086D-01
   0    39    0.515871D-02    0.110926D+01    0.225958D+01   -0.571274D-01
   0    40    0.393214D-02    0.110426D+01    0.538504D+00   -0.443562D-01
   0    41    0.465308D-02    0.109798D+01   -0.289897D+01   -0.280211D-01
   0    42    0.647186D-02    0.109073D+01   -0.138376D+01   -0.916932D-02
   0    43    0.108757D-01    0.108350D+01   -0.100536D+01    0.953933D-02
   0    44    0.189531D-01    0.107896D+01    0.123034D+01    0.211003D-01
   0    45    0.256688D-01    0.108776D+01    0.120262D+02   -0.899133D-03
   0    46    0.271855D-01    0.109504D+01    0.643335D+01   -0.201044D-01
   0    47    0.256252D-01    0.110181D+01    0.194700D+02   -0.399104D-01
   0    48    0.247282D-01    0.110402D+01   -0.138998D+02   -0.435145D-01
   0    49    0.244563D-01    0.110580D+01    0.308948D+01   -0.498377D-01
   0    50    0.247746D-01    0.110504D+01    0.471254D+00   -0.458809D-01
   0    51    0.258209D-01    0.110583D+01    0.558869D+00   -0.496022D-01
   0    52    0.264486D-01    0.110757D+01    0.110666D+02   -0.539285D-01
   0    53    0.277201D-01    0.110821D+01    0.358905D+01   -0.535620D-01
   0    54    0.286244D-01    0.110696D+01    0.331531D+01   -0.520107D-01
   0    55    0.285779D-01    0.110793D+01    0.311407D+01   -0.531878D-01
   0    56    0.292420D-01    0.110912D+01   -0.137055D+01   -0.558255D-01
   0    57    0.310265D-01    0.110767D+01   -0.479415D+01   -0.515210D-01
   0    58    0.320919D-01    0.110622D+01   -0.196513D+01   -0.488569D-01
   0    59    0.331890D-01    0.110606D+01   -0.804692D+01   -0.501071D-01
   0    60    0.341734D-01    0.110607D+01   -0.581158D+01   -0.489309D-01
   0    61    0.361695D-01    0.110322D+01   -0.269197D+02   -0.406707D-01
   0    62    0.380695D-01    0.109920D+01   -0.149976D+02   -0.321006D-01
   0    63    0.398425D-01    0.109557D+01    0.118771D+02   -0.230885D-01
   0    64    0.426522D-01    0.109408D+01   -0.924657D+01   -0.162114D-01
   0    65    0.454976D-01    0.108973D+01    0.116602D+02   -0.866500D-02
   0    66    0.497920D-01    0.108537D+01   -0.141290D+01    0.489811D-02
   0    67    0.551671D-01    0.108218D+01    0.101080D+02    0.116421D-01
   0    68    0.607303D-01    0.107924D+01   -0.171518D+02    0.207040D-01
   0    69    0.699982D-01    0.107779D+01   -0.298568D+02    0.267449D-01
   0    70    0.800768D-01    0.107368D+01    0.165534D+02    0.376110D-01
   0    71    0.911271D-01    0.107486D+01    0.101728D+02    0.345450D-01
   0    72    0.103168D+00    0.107196D+01   -0.798357D+02    0.396021D-01
   0    73    0.114802D+00    0.107459D+01    0.152102D+02    0.294141D-01
   0    74    0.128449D+00    0.108161D+01   -0.584393D+02    0.173901D-01
   0    75    0.142021D+00    0.108132D+01    0.744302D+01    0.204275D-01
   0    76    0.152900D+00    0.108832D+01   -0.533292D+02   -0.434033D-02
   0    77    0.172365D+00    0.109283D+01   -0.370766D+02   -0.130544D-01
   0    78    0.189308D+00    0.110075D+01    0.297259D+02   -0.313431D-01
   0    79    0.208247D+00    0.111092D+01   -0.133712D+03   -0.592511D-01
   0    80    0.234850D+00    0.110850D+01   -0.530815D+02   -0.545981D-01
   0    81    0.260770D+00    0.109632D+01    0.278204D+02   -0.258536D-01
   0    82    0.266831D+00    0.104869D+01    0.163229D+03    0.979740D-01
   0    83    0.159373D+00    0.878194D+00    0.288417D+03    0.299386D+00
   0    84    0.533956D-01    0.536586D+00    0.106450D+03    0.368120D+00
   0    85    0.140770D-01    0.273255D+00    0.360496D+02    0.383095D+00
   0    86    0.335588D-02    0.126587D+00    0.686396D+01    0.387937D+00
   0    87    0.788103D-03    0.557355D-01    0.169419D+01    0.389791D+00
   0    88    0.174368D-03    0.238272D-01    0.413200D+00    0.390546D+00
   0    89    0.373208D-04    0.999988D-02    0.866803D-01    0.390859D+00
   0    90    0.794934D-05    0.414568D-02    0.157069D-01    0.390990D+00
   0    91    0.168683D-05    0.170475D-02    0.284735D-02    0.391044D+00
   0    92    0.356799D-06    0.697031D-03    0.531281D-03    0.391066D+00
   0    93    0.726358D-07    0.283834D-03    0.199935D-03    0.391075D+00
   0    94    0.151256D-07    0.115220D-03    0.392963D-04    0.391079D+00
   0    95    0.311070D-08    0.466610D-04    0.502369D-05    0.391080D+00
   0    96    0.635403D-09    0.188611D-04    0.150592D-05    0.391081D+00
   0    97    0.127620D-09    0.761237D-05    0.368086D-06    0.391081D+00
   0    98    0.260085D-10    0.306847D-05    0.671961D-07    0.391081D+00
   0    99    0.528523D-11    0.123552D-05    0.977102D-08    0.391081D+00
   0   100    0.106070D-11    0.496996D-06    0.292882D-08    0.391081D+00
   0   101    0.210456D-12    0.199744D-06    0.558225D-09    0.391081D+00
   0   102    0.422840D-13    0.802115D-07    0.106067D-09    0.391081D+00
   0   103    0.841766D-14    0.321860D-07    0.197530D-10    0.391081D+00
   0   104    0.169152D-14    0.129057D-07    0.456477D-11    0.391081D+00
   0   105    0.337699D-15    0.517132D-08    0.818456D-12    0.391081D+00
   0   106    0.679888D-16    0.207080D-08    0.119389D-12    0.391081D+00
   0   107    0.134815D-16    0.828715D-09    0.310554D-13    0.391081D+00
   0   108    0.266879D-17    0.331450D-09    0.629668D-14    0.391081D+00
   0   109    0.534715D-18    0.132491D-09    0.151730D-14    0.391081D+00
   0   110    0.105378D-18    0.529329D-10    0.175275D-15    0.391081D+00
   0   111    0.206364D-19    0.211370D-10    0.445783D-16    0.391081D+00
   0   112    0.406921D-20    0.843632D-11    0.835340D-17    0.391081D+00
   0   113    0.813396D-21    0.336560D-11    0.165565D-17    0.391081D+00
   0   114    0.162077D-21    0.134209D-11    0.285212D-18    0.391081D+00
   0   115    0.326245D-22    0.534954D-12    0.608349D-19    0.391081D+00
   0   116    0.647363D-23    0.213145D-12    0.125231D-19    0.391081D+00
   0   117    0.125764D-23    0.848915D-13    0.242144D-20    0.391081D+00
   0   118    0.247385D-24    0.337976D-13    0.664776D-21    0.391081D+00
   0   119    0.498060D-25    0.134507D-13    0.748138D-22    0.391081D+00
   0   120    0.971783D-26    0.535108D-14    0.272470D-22    0.391081D+00
   0   121    0.191862D-26    0.212802D-14    0.320032D-23    0.391081D+00
   0   122    0.375553D-27    0.845950D-15    0.634621D-24    0.391081D+00
   0   123    0.735277D-28    0.336160D-15    0.189195D-24    0.391081D+00
   0   124    0.145543D-28    0.133528D-15    0.373071D-25    0.391081D+00
   0   125    0.284638D-29    0.530176D-16    0.813611D-26    0.391081D+00
   0   126    0.568642D-30    0.210415D-16    0.145392D-26    0.391081D+00
   0   127    0.110860D-30    0.834707D-17    0.290391D-27    0.391081D+00
   0   128    0.219097D-31    0.330963D-17    0.455546D-28    0.391081D+00
   0   129    0.433064D-32    0.131159D-17    0.118371D-28    0.391081D+00
   0   130    0.846863D-33    0.519484D-18    0.170713D-29    0.391081D+00
   0   131    0.167466D-33    0.205630D-18    0.425087D-30    0.391081D+00
   0   132    0.332243D-34    0.813434D-19    0.697693D-31    0.391081D+00
   0   133    0.653434D-35    0.321556D-19    0.171976D-31    0.391081D+00
   0   134    0.125606D-35    0.127018D-19    0.381619D-32    0.391081D+00
   0   135    0.248045D-36    0.501332D-20    0.713918D-33    0.391081D+00
   0   136    0.495416D-37    0.197702D-20    0.923771D-34    0.391081D+00
   0   137    0.980891D-38    0.778919D-21    0.162685D-34    0.391081D+00
   0   138    0.193531D-38    0.306578D-21    0.325050D-35    0.391081D+00
   0   139    0.382422D-39    0.120539D-21    0.724682D-36    0.391081D+00
   0   140    0.743436D-40    0.473392D-22    0.168283D-36    0.391081D+00
   0   141    0.146424D-40    0.185689D-22    0.394145D-37    0.391081D+00
   0   142    0.286097D-41    0.727430D-23    0.563042D-38    0.391081D+00
   0   143    0.568786D-42    0.284579D-23    0.136940D-38    0.391081D+00
   0   144    0.108995D-42    0.111169D-23    0.328694D-39    0.391081D+00
   0   145    0.210599D-43    0.433613D-24    0.539743D-40    0.391081D+00
   0   146    0.417656D-44    0.168858D-24    0.930678D-41    0.391081D+00
   0   147    0.821711D-45    0.656454D-25    0.186915D-41    0.391081D+00
   0   148    0.162699D-45    0.254752D-25    0.439464D-42    0.391081D+00
   0   149    0.322175D-46    0.986788D-26    0.893025D-43    0.391081D+00
   0   150    0.617947D-47    0.381495D-26    0.139698D-43    0.391081D+00
   0   151    0.121811D-47    0.147190D-26    0.280019D-44    0.391081D+00
   0   152    0.239154D-48    0.566706D-27    0.493602D-45    0.391081D+00
   0   153    0.475574D-49    0.217717D-27    0.898740D-46    0.391081D+00
   0   154    0.930476D-50    0.834547D-28    0.253399D-46    0.391081D+00
   0   155    0.184429D-50    0.319153D-28    0.510381D-47    0.391081D+00
   0   156    0.361832D-51    0.121760D-28    0.744520D-48    0.391081D+00
   0   157    0.698928D-52    0.463382D-29    0.142838D-48    0.391081D+00
   0   158    0.134743D-52    0.175902D-29    0.295810D-49    0.391081D+00
   0   159    0.268961D-53    0.665994D-30    0.576968D-50    0.391081D+00
   0   160    0.519572D-54    0.251484D-30    0.114391D-50    0.391081D+00
   0   161    0.100844D-54    0.947028D-31    0.257745D-51    0.391081D+00
   0   162    0.200738D-55    0.355633D-31    0.457863D-52    0.391081D+00
   0   163    0.393334D-56    0.133169D-31    0.815452D-53    0.391081D+00
   0   164    0.770452D-57    0.497212D-32    0.168165D-53    0.391081D+00
   0   165    0.150367D-57    0.185095D-32    0.308876D-54    0.391081D+00
   0   166    0.295573D-58    0.686971D-33    0.573639D-55    0.391081D+00
   0   167    0.576090D-59    0.254187D-33    0.162758D-55    0.391081D+00
   0   168    0.111681D-59    0.937601D-34    0.215586D-56    0.391081D+00
   0   169    0.218484D-60    0.344758D-34    0.491998D-57    0.391081D+00
   0   170    0.432442D-61    0.126364D-34    0.947337D-58    0.391081D+00
   0   171    0.854756D-62    0.461665D-35    0.218756D-58    0.391081D+00
   0   172    0.169089D-62    0.168116D-35    0.411755D-59    0.391081D+00
   0   173    0.332960D-63    0.610177D-36    0.691939D-60    0.391081D+00
   0   174    0.637853D-64    0.220725D-36    0.117862D-60    0.391081D+00
   0   175    0.126089D-64    0.795758D-37    0.336605D-61    0.391081D+00
   0   176    0.247478D-65    0.285912D-37    0.598682D-62    0.391081D+00
   0   177    0.476300D-66    0.102375D-37    0.102114D-62    0.391081D+00
   0   178    0.923039D-67    0.365302D-38    0.160791D-63    0.391081D+00
   0   179    0.182700D-67    0.129897D-38    0.422899D-64    0.391081D+00
   0   180    0.353673D-68    0.460280D-39    0.914963D-65    0.391081D+00
   0   181    0.683715D-69    0.162522D-39    0.132170D-65    0.391081D+00
   0   182    0.134984D-69    0.571826D-40    0.252051D-66    0.391081D+00
   0   183    0.266826D-70    0.200477D-40    0.718815D-67    0.391081D+00
   0   184    0.521865D-71    0.700343D-41    0.130181D-67    0.391081D+00
   0   185    0.101713D-71    0.243777D-41    0.187426D-68    0.391081D+00
   0   186    0.197041D-72    0.845481D-42    0.324428D-69    0.391081D+00
   0   187    0.388612D-73    0.292173D-42    0.827214D-70    0.391081D+00
   0   188    0.749542D-74    0.100599D-42    0.124445D-70    0.391081D+00
   0   189    0.146197D-74    0.345116D-43    0.296465D-71    0.391081D+00
   0   190    0.285095D-75    0.117962D-43    0.532706D-72    0.391081D+00
   0   191    0.567478D-76    0.401724D-44    0.985508D-73    0.391081D+00
   0   192    0.108646D-76    0.136306D-44    0.239883D-73    0.391081D+00
   0   193    0.215545D-77    0.460786D-45    0.367718D-74    0.391081D+00
   0   194    0.411311D-78    0.155196D-45    0.117482D-74    0.391081D+00
   0   195    0.796717D-79    0.520780D-46    0.143024D-75    0.391081D+00
   0   196    0.155159D-79    0.174108D-46    0.313337D-76    0.391081D+00
   0   197    0.307391D-80    0.579928D-47    0.497688D-77    0.391081D+00
   0   198    0.594205D-81    0.192449D-47    0.142555D-77    0.391081D+00
   0   199    0.116366D-81    0.636274D-48    0.321442D-78    0.391081D+00
   0   200    0.229808D-82    0.209584D-48    0.539004D-79    0.391081D+00
   0   201    0.447965D-83    0.687789D-49    0.124790D-79    0.391081D+00
   0   202    0.886103D-84    0.224873D-49    0.158454D-80    0.391081D+00
   0   203    0.172406D-84    0.732491D-50    0.468325D-81    0.391081D+00
   0   204    0.332714D-85    0.237712D-50    0.904984D-82    0.391081D+00
   0   205    0.651477D-86    0.768568D-51    0.143875D-82    0.391081D+00
   0   206    0.126472D-86    0.247570D-51    0.360357D-83    0.391081D+00
   0   207    0.251214D-87    0.794506D-52    0.554593D-84    0.391081D+00
   0   208    0.478356D-88    0.254028D-52    0.141846D-84    0.391081D+00
   0   209    0.936595D-89    0.809191D-53    0.169279D-85    0.391081D+00
   0   210    0.182956D-89    0.256807D-53    0.463665D-86    0.391081D+00
   0   211    0.357711D-90    0.811989D-54    0.739923D-87    0.391081D+00
   0   212    0.706814D-91    0.255789D-54    0.165967D-87    0.391081D+00
   0   213    0.138182D-91    0.802795D-55    0.332587D-88    0.391081D+00
   0   214    0.268390D-92    0.251026D-55    0.609470D-89    0.391081D+00
   0   215    0.508987D-93    0.782032D-56    0.139705D-89    0.391081D+00
   0   216    0.977219D-94    0.242731D-56    0.182887D-90    0.391081D+00
   0   217    0.192867D-94    0.750626D-57    0.389087D-91    0.391081D+00
   0   218    0.373735D-95    0.231270D-57    0.702765D-92    0.391081D+00
   0   219    0.736948D-96    0.709930D-58    0.185343D-92    0.391081D+00
   0   220    0.145249D-96    0.217127D-58    0.293335D-93    0.391081D+00
   0   221    0.282005D-97    0.661632D-59    0.760411D-94    0.391081D+00
   0   222    0.548538D-98    0.200875D-59    0.115225D-94    0.391081D+00
   0   223    0.104935D-98    0.607637D-60    0.204650D-95    0.391081D+00
   0   224    0.201375D-99    0.183136D-60    0.381978D-96    0.391081D+00
   0   225    0.389742-100    0.549942D-61    0.107218D-96    0.391081D+00
   0   226    0.755363-101    0.164542D-61    0.137619D-97    0.391081D+00
   0   227    0.147350-101    0.490517D-62    0.379861D-98    0.391081D+00
   0   228    0.291857-102    0.145698D-62    0.505987D-99    0.391081D+00
   0   229    0.567494-103    0.431197D-63    0.109130D-99    0.391081D+00
   0   230    0.108814-103    0.127152D-63    0.282917-100    0.391081D+00
   0   231    0.210319-104    0.373596D-64    0.405306-101    0.391081D+00
   0   232    0.411804-105    0.109374D-64    0.651490-102    0.391081D+00
   0   233    0.794992-106    0.319049D-65    0.184775-102    0.391081D+00
   0   234    0.155385-106    0.927341D-66    0.448514-103    0.391081D+00
   0   235    0.306046-107    0.268573D-66    0.742047-104    0.391081D+00
   0   236    0.582319-108    0.775047D-67    0.179629-104    0.391081D+00
   0   237    0.114724-108    0.222864D-67    0.309710-105    0.391081D+00
   0   238    0.220963-109    0.638559D-68    0.545688-106    0.391081D+00
   0   239    0.422267-110    0.182311D-68    0.889945-107    0.391081D+00
   0   240    0.814743-111    0.518659D-69    0.165695-107    0.391081D+00
   0   241    0.159345-111    0.147031D-69    0.365614-108    0.391081D+00
   0   242    0.308497-112    0.415332D-70    0.786086-109    0.391081D+00
   0   243    0.597096-113    0.116909D-70    0.160958-109    0.391081D+00
   0   244    0.114029-113    0.327918D-71    0.324959-110    0.391081D+00
   0   245    0.223101-114    0.916546D-72    0.418972-111    0.391081D+00
   0   246    0.425101-115    0.255280D-72    0.944221-112    0.391081D+00
   0   247    0.833131-116    0.708526D-73    0.139782-112    0.391081D+00
   0   248    0.161411-116    0.195963D-73    0.379263-113    0.391081D+00
   0   249    0.313815-117    0.540101D-74    0.573034-114    0.391081D+00
   0   250    0.602433-118    0.148341D-74    0.157404-114    0.391081D+00
   0   251    0.116472-118    0.406012D-75    0.271446-115    0.391081D+00
   0   252    0.222636-119    0.110741D-75    0.518531-116    0.391081D+00
   0   253    0.426129-120    0.301003D-76    0.866923-117    0.391081D+00
   0   254    0.823353-121    0.815331D-77    0.167715-117    0.391081D+00
   0   255    0.160050-121    0.220089D-77    0.398702-118    0.391081D+00
   0   256    0.305491-122    0.592063D-78    0.882652-119    0.391081D+00
   0   257    0.591525-123    0.158725D-78    0.131679-119    0.391081D+00
   0   258    0.112954-123    0.424067D-79    0.227917-120    0.391081D+00
   0   259    0.212970-124    0.112911D-79    0.614226-121    0.391081D+00
   0   260    0.402903-125    0.299612D-80    0.122102-121    0.391081D+00
   0   261    0.775550-126    0.792322D-81    0.173454-122    0.391081D+00
   0   262    0.147652-126    0.208818D-81    0.408427-123    0.391081D+00
   0   263    0.283789-127    0.548482D-82    0.524670-124    0.391081D+00
   0   264    0.542105-128    0.143578D-82    0.919181-125    0.391081D+00
   0   265    0.101809-128    0.374580D-83    0.182182-125    0.391081D+00
   0   266    0.189414-129    0.973959D-84    0.533433-126    0.391081D+00
   0   267    0.359990-130    0.252392D-84    0.900726-127    0.391081D+00
   0   268    0.675601-131    0.651862D-85    0.208407-127    0.391081D+00
   0   269    0.127820-131    0.167796D-85    0.320074-128    0.391081D+00
   0   270    0.246052-132    0.430484D-86    0.582232-129    0.391081D+00
   0   271    0.458946-133    0.110074D-86    0.142182-129    0.391081D+00
   0   272    0.861768-134    0.280524D-87    0.224316-130    0.391081D+00
   0   273    0.162145-134    0.712550D-88    0.430521-131    0.391081D+00
   0   274    0.308101-135    0.180394D-88    0.847582-132    0.391081D+00
   0   275    0.568409-136    0.455193D-89    0.155647-132    0.391081D+00
   0   276    0.107466-136    0.114482D-89    0.218974-133    0.391081D+00
   0   277    0.201444-137    0.286980D-90    0.452509-134    0.391081D+00
   0   278    0.378471-138    0.717035D-91    0.718523-135    0.391081D+00
   0   279    0.702741-139    0.178570D-91    0.181809-135    0.391081D+00
   0   280    0.132614-139    0.443259D-92    0.371186-136    0.391081D+00
   0   281    0.249471-140    0.109671D-92    0.445576-137    0.391081D+00
   0   282    0.467995-141    0.270467D-93    0.115168-137    0.391081D+00
   0   283    0.845918-142    0.664857D-94    0.231518-138    0.391081D+00
   0   284    0.157880-142    0.162906D-94    0.443417-139    0.391081D+00
   0   285    0.287694-143    0.397870D-95    0.853104-140    0.391081D+00
   0   286    0.537106-144    0.968606D-96    0.105817-140    0.391081D+00
   0   287    0.979057-145    0.235048D-96    0.234759-141    0.391081D+00
   0   288    0.180957-145    0.568555D-97    0.414546-142    0.391081D+00
   0   289    0.331139-146    0.137088D-97    0.107245-142    0.391081D+00
   0   290    0.613519-147    0.329486D-98    0.185840-143    0.391081D+00
   0   291    0.111440-147    0.789391D-99    0.331024-144    0.391081D+00
   0   292    0.203924-148    0.188524D-99    0.661901-145    0.391081D+00
   0   293    0.373214-149    0.448810-100    0.779154-146    0.391081D+00
   0   294    0.667537-150    0.106508-100    0.228048-146    0.391081D+00
   0   295    0.120652-150    0.251961-101    0.395956-147    0.391081D+00
   0   296    0.219351-151    0.594176-102    0.528711-148    0.391081D+00
   0   297    0.392521-152    0.139679-102    0.932613-149    0.391081D+00
   0   298    0.717115-153    0.327329-103    0.174491-149    0.391081D+00
   0   299    0.128320-153    0.764678-104    0.317077-150    0.391081D+00
   0   300    0.228834-154    0.178080-104    0.682939-151    0.391081D+00
   0   301    0.411590-155    0.413428-105    0.978233-152    0.391081D+00
   0   302    0.728724-156    0.956827-106    0.230305-152    0.391081D+00
   0   303    0.130807-156    0.220760-106    0.310153-153    0.391081D+00
   0   304    0.236219-157    0.507764-107    0.745772-154    0.391081D+00
   0   305    0.400630-158    0.116429-107    0.116649-154    0.391081D+00
   0   306    0.700375-159    0.266148-108    0.198195-155    0.391081D+00
   0   307    0.124630-159    0.606527-109    0.306761-156    0.391081D+00
   0   308    0.222701-160    0.137798-109    0.533380-157    0.391081D+00
   0   309    0.392349-161    0.312111-110    0.112927-157    0.391081D+00
   0   310    0.681831-162    0.704769-111    0.182164-158    0.391081D+00
   0   311    0.118037-162    0.158658-111    0.319471-159    0.391081D+00
   0   312    0.204348-163    0.356086-112    0.700455-160    0.391081D+00
   0   313    0.353881-164    0.796765-113    0.102607-160    0.391081D+00
   0   314    0.621706-165    0.177742-113    0.192606-161    0.391081D+00
   0   315    0.108793-165    0.395312-114    0.242700-162    0.391081D+00
   0   316    0.193172-166    0.876555-115    0.481483-163    0.391081D+00
   0   317    0.330362-167    0.193782-115    0.111251-163    0.391081D+00
   0   318    0.563561-168    0.427113-116    0.171880-164    0.391081D+00
   0   319    0.979531-169    0.938583-117    0.337211-165    0.391081D+00
   0   320    0.169197-169    0.205639-117    0.478972-166    0.391081D+00
   0   321    0.285348-170    0.449202-118    0.102384-166    0.391081D+00
   0   322    0.488668-171    0.978335-119    0.137642-167    0.391081D+00
   0   323    0.819118-172    0.212444-119    0.210191-168    0.391081D+00
   0   324    0.139026-172    0.459954-120    0.428771-169    0.391081D+00
   0   325    0.243942-173    0.992889-121    0.606101-170    0.391081D+00
   0   326    0.412552-174    0.213701-121    0.117028-170    0.391081D+00
   0   327    0.699324-175    0.458601-122    0.175923-171    0.391081D+00
   0   328    0.113652-175    0.981270-123    0.408456-172    0.391081D+00
   0   329    0.190564-176    0.209348-123    0.542450-173    0.391081D+00
   0   330    0.312667-177    0.445329-124    0.864896-174    0.391081D+00
   0   331    0.526490-178    0.944552-125    0.158094-174    0.391081D+00
   0   332    0.886106-179    0.199759-125    0.254692-175    0.391081D+00
   0   333    0.148360-179    0.421237-126    0.405473-176    0.391081D+00
   0   334    0.242104-180    0.885703-127    0.902648-177    0.391081D+00
   0   335    0.403000-181    0.185692-127    0.150651-177    0.391081D+00
   0   336    0.659105-182    0.388192-128    0.179498-178    0.391081D+00
   0   337    0.106858-182    0.809187-129    0.378208-179    0.391081D+00
   0   338    0.174404-183    0.168191-129    0.693290-180    0.391081D+00
   0   339    0.285521-184    0.348589-130    0.100782-180    0.391081D+00
   0   340    0.471929-185    0.720413-131    0.124518-181    0.391081D+00
   0   341    0.751800-186    0.148460-131    0.233570-182    0.391081D+00
   0   342    0.122993-186    0.305071-132    0.392496-183    0.391081D+00
   0   343    0.197002-187    0.625113-133    0.630015-184    0.391081D+00
   0   344    0.322927-188    0.127727-133    0.920279-185    0.391081D+00
   0   345    0.520435-189    0.260244-134    0.162629-185    0.391081D+00
   0   346    0.824674-190    0.528752-135    0.278454-186    0.391081D+00
   0   347    0.131268-190    0.107127-135    0.526712-187    0.391081D+00
   0   348    0.211278-191    0.216434-136    0.849331-188    0.391081D+00
   0   349    0.335616-192    0.436046-137    0.968980-189    0.391081D+00
   0   350    0.530258-193    0.876041-138    0.198237-189    0.391081D+00
   0   351    0.857151-194    0.175511-138    0.280098-190    0.391081D+00
   0   352    0.135497-194    0.350648-139    0.428612-191    0.391081D+00
   0   353    0.212086-195    0.698605-140    0.818820-192    0.391081D+00
   0   354    0.335528-196    0.138799-140    0.117629-192    0.391081D+00
   0   355    0.523685-197    0.275003-141    0.196958-193    0.391081D+00
   0   356    0.803557-198    0.543362-142    0.282595-194    0.391081D+00
   0   357    0.126268-198    0.107064-142    0.408125-195    0.391081D+00
   0   358    0.197323-199    0.210378-143    0.756262-196    0.391081D+00
   0   359    0.305689-200    0.412256-144    0.124425-196    0.391081D+00
   0   360    0.475717-201    0.805641-145    0.143963-197    0.391081D+00
   0   361    0.725027-202    0.157011-145    0.227235-198    0.391081D+00
   0   362    0.112123-202    0.305163-146    0.459013-199    0.391081D+00
   0   363    0.172511-203    0.591495-147    0.745105-200    0.391081D+00
   0   364    0.262913-204    0.114338-147    0.934270-201    0.391081D+00
   0   365    0.399446-205    0.220420-148    0.167181-201    0.391081D+00
   0   366    0.604984-206    0.423778-149    0.203776-202    0.391081D+00
   0   367    0.911017-207    0.812552-150    0.350445-203    0.391081D+00
   0   368    0.139841-207    0.155380-150    0.459505-204    0.391081D+00
   0   369    0.215390-208    0.296325-151    0.775941-205    0.391081D+00
   0   370    0.330796-209    0.563609-152    0.123554-205    0.391081D+00
   0   371    0.483995-210    0.106911-152    0.197420-206    0.391081D+00
   0   372    0.731905-211    0.202260-153    0.277717-207    0.391081D+00
   0   373    0.109080-211    0.381625-154    0.477361-208    0.391081D+00
   0   374    0.162911-212    0.718138-155    0.555948-209    0.391081D+00
   0   375    0.239107-213    0.134780-155    0.913340-210    0.391081D+00
   0   376    0.353447-214    0.252285-156    0.118976-210    0.391081D+00
   0   377    0.525235-215    0.470987-157    0.215591-211    0.391081D+00
   0   378    0.777654-216    0.876961-158    0.342432-212    0.391081D+00
   0   379    0.111754-216    0.162857-158    0.539365-213    0.391081D+00
   0   380    0.165873-217    0.301643-159    0.604295-214    0.391081D+00
   0   381    0.244473-218    0.557236-160    0.919662-215    0.391081D+00
   0   382    0.357002-219    0.102671-160    0.133327-215    0.391081D+00
   0   383    0.528619-220    0.188678-161    0.236132-216    0.391081D+00
   0   384    0.770811-221    0.345831-162    0.274243-217    0.391081D+00
   0   385    0.111958-221    0.632231-163    0.494342-218    0.391081D+00
   0   386    0.163411-222    0.115281-163    0.615487-219    0.391081D+00
   0   387    0.234695-223    0.209661-164    0.827073-220    0.391081D+00
   0   388    0.338728-224    0.380323-165    0.140733-220    0.391081D+00
   0   389    0.499283-225    0.688125-166    0.193941-221    0.391081D+00
   0   390    0.720067-226    0.124183-166    0.258842-222    0.391081D+00
   0   391    0.102604-226    0.223533-167    0.395533-223    0.391081D+00
   0   392    0.146051-227    0.401335-168    0.590617-224    0.391081D+00
   0   393    0.206755-228    0.718719-169    0.983134-225    0.391081D+00
   0   394    0.290189-229    0.128382-169    0.118825-225    0.391081D+00
   0   395    0.411405-230    0.228738-170    0.166155-226    0.391081D+00
   0   396    0.576317-231    0.406507-171    0.251012-227    0.391081D+00
   0   397    0.810659-232    0.720582-172    0.325105-228    0.391081D+00