variables =  "IG"  "JG"  "PHI"  "Temp."  "Latent_heat"  "mm"
ZONE  I=  401  J=  101
   0     0    0.100000D+01    0.999723D+00    0.000000D+00    0.190088D+00
   0     1    0.100000D+01    0.999723D+00    0.000000D+00    0.190088D+00
   0     2    0.100000D+01    0.100001D+01    0.000000D+00    0.189659D+00
   0     3    0.100000D+01    0.100058D+01    0.000000D+00    0.188800D+00
   0     4    0.100000D+01    0.100143D+01    0.000000D+00    0.187508D+00
   0     5    0.100000D+01    0.100256D+01    0.000000D+00    0.185779D+00
   0     6    0.100000D+01    0.100396D+01    0.000000D+00    0.183610D+00
   0     7    0.100000D+01    0.100562D+01    0.000000D+00    0.180993D+00
   0     8    0.100000D+01    0.100754D+01    0.000000D+00    0.177924D+00
   0     9    0.100000D+01    0.100970D+01    0.000000D+00    0.174396D+00
   0    10    0.100000D+01    0.101209D+01    0.000000D+00    0.170403D+00
   0    11    0.100000D+01    0.101470D+01    0.000000D+00    0.165938D+00
   0    12    0.100000D+01    0.101751D+01    0.000000D+00    0.160997D+00
   0    13    0.100000D+01    0.102051D+01    0.000000D+00    0.155577D+00
   0    14    0.100000D+01    0.102369D+01    0.000000D+00    0.149678D+00
   0    15    0.100000D+01    0.102703D+01    0.000000D+00    0.143302D+00
   0    16    0.100000D+01    0.103050D+01    0.000000D+00    0.136456D+00
   0    17    0.100000D+01    0.103410D+01    0.000000D+00    0.129151D+00
   0    18    0.100000D+01    0.103780D+01    0.000000D+00    0.121405D+00
   0    19    0.100000D+01    0.104158D+01    0.000000D+00    0.113243D+00
   0    20    0.100000D+01    0.104543D+01    0.000000D+00    0.104695D+00
   0    21    0.100000D+01    0.104933D+01    0.000000D+00    0.958021D-01
   0    22    0.100000D+01    0.105326D+01    0.145853D-09    0.866102D-01
   0    23    0.100000D+01    0.105719D+01   -0.158980D-08    0.771743D-01
   0    24    0.100000D+01    0.106112D+01   -0.437559D-08    0.675556D-01
   0    25    0.100000D+01    0.106501D+01    0.546511D-07    0.578210D-01
   0    26    0.100000D+01    0.106886D+01    0.870844D-06    0.480413D-01
   0    27    0.100000D+01    0.107265D+01    0.630520D-05    0.382888D-01
   0    28    0.100000D+01    0.107636D+01    0.271068D-04    0.286357D-01
   0    29    0.999999D+00    0.107998D+01    0.296508D-03    0.191519D-01
   0    30    0.999993D+00    0.108349D+01   -0.264403D-02    0.990522D-02
   0    31    0.999944D+00    0.108687D+01    0.355088D-02    0.966383D-03
   0    32    0.999560D+00    0.109010D+01   -0.175384D+00   -0.757892D-02
   0    33    0.996663D+00    0.109319D+01    0.600957D+00   -0.157004D-01
   0    34    0.974561D+00    0.109614D+01    0.478601D+01   -0.236515D-01
   0    35    0.820356D+00    0.109909D+01   -0.260414D+02   -0.327741D-01
   0    36    0.153625D+00    0.110310D+01    0.370000D+01   -0.395441D-01
   0    37    0.216130D-01    0.110275D+01   -0.100651D+02   -0.402806D-01
   0    38    0.297363D-02    0.110367D+01    0.115994D+00   -0.430238D-01
   0    39    0.465282D-03    0.110432D+01    0.162356D-01   -0.447478D-01
   0    40    0.117586D-03    0.110465D+01   -0.379100D-01   -0.456050D-01
   0    41    0.678033D-04    0.110463D+01    0.381588D-01   -0.455261D-01
   0    42    0.597784D-04    0.110429D+01    0.242391D-01   -0.446569D-01
   0    43    0.598924D-04    0.110366D+01    0.840948D-02   -0.430419D-01
   0    44    0.610206D-04    0.110273D+01   -0.345211D-01   -0.406253D-01
   0    45    0.632637D-04    0.110149D+01    0.161708D-01   -0.374343D-01
   0    46    0.666090D-04    0.109994D+01   -0.270089D-01   -0.334063D-01
   0    47    0.724035D-04    0.109812D+01    0.458641D-01   -0.286651D-01
   0    48    0.820856D-04    0.109607D+01    0.728622D-02   -0.232987D-01
   0    49    0.103837D-03    0.109394D+01    0.546634D-01   -0.177151D-01
   0    50    0.160083D-03    0.109200D+01   -0.792302D-01   -0.125774D-01
   0    51    0.276764D-03    0.109061D+01   -0.737554D-01   -0.893480D-02
   0    52    0.446673D-03    0.108996D+01    0.123592D+00   -0.719131D-02
   0    53    0.568939D-03    0.108966D+01    0.104445D+00   -0.641415D-02
   0    54    0.621456D-03    0.108920D+01   -0.226176D+00   -0.519275D-02
   0    55    0.570148D-03    0.108792D+01   -0.349859D+00   -0.181653D-02
   0    56    0.456172D-03    0.108610D+01    0.186002D+00    0.302554D-02
   0    57    0.308725D-03    0.108389D+01   -0.123282D+00    0.885344D-02
   0    58    0.205635D-03    0.108168D+01    0.421356D-01    0.146660D-01
   0    59    0.158252D-03    0.107956D+01   -0.544855D-01    0.202544D-01
   0    60    0.145097D-03    0.107748D+01   -0.731166D-01    0.257169D-01
   0    61    0.145525D-03    0.107548D+01   -0.724567D-01    0.309619D-01
   0    62    0.154706D-03    0.107348D+01   -0.912011D-01    0.361531D-01
   0    63    0.168780D-03    0.107151D+01    0.319594D-01    0.412453D-01
   0    64    0.183427D-03    0.106966D+01    0.716389D-01    0.460188D-01
   0    65    0.204277D-03    0.106791D+01    0.922750D-01    0.504815D-01
   0    66    0.223497D-03    0.106643D+01   -0.139711D+00    0.542443D-01
   0    67    0.247459D-03    0.106534D+01   -0.614937D-01    0.569918D-01
   0    68    0.254179D-03    0.106473D+01   -0.108853D-01    0.585155D-01
   0    69    0.260366D-03    0.106457D+01   -0.101335D+00    0.589515D-01
   0    70    0.257602D-03    0.106478D+01    0.289182D-01    0.583991D-01
   0    71    0.246675D-03    0.106526D+01   -0.408683D-01    0.571950D-01
   0    72    0.249841D-03    0.106588D+01   -0.551528D-01    0.556189D-01
   0    73    0.249118D-03    0.106636D+01   -0.873149D-01    0.543977D-01
   0    74    0.260803D-03    0.106686D+01   -0.134816D+00    0.531115D-01
   0    75    0.277640D-03    0.106742D+01   -0.514818D-01    0.516951D-01
   0    76    0.293172D-03    0.106807D+01   -0.243893D+00    0.500271D-01
   0    77    0.306517D-03    0.106900D+01    0.966108D-01    0.476472D-01
   0    78    0.308901D-03    0.107007D+01    0.543475D-01    0.449279D-01
   0    79    0.303212D-03    0.107130D+01   -0.240209D-01    0.417305D-01
   0    80    0.311734D-03    0.107273D+01    0.148350D+00    0.380406D-01
   0    81    0.310683D-03    0.107416D+01    0.101880D+00    0.343201D-01
   0    82    0.320595D-03    0.107548D+01   -0.230219D+00    0.308793D-01
   0    83    0.320267D-03    0.107695D+01    0.152567D+00    0.270587D-01
   0    84    0.332697D-03    0.107845D+01   -0.832205D-01    0.231064D-01
   0    85    0.332374D-03    0.108001D+01    0.164693D+00    0.190264D-01
   0    86    0.337749D-03    0.108140D+01   -0.391258D-01    0.153823D-01
   0    87    0.330968D-03    0.108266D+01    0.203091D-01    0.120392D-01
   0    88    0.328567D-03    0.108404D+01   -0.117536D+00    0.842019D-02
   0    89    0.325348D-03    0.108553D+01   -0.119228D-01    0.445138D-02
   0    90    0.334186D-03    0.108702D+01    0.880906D-01    0.550401D-03
   0    91    0.332277D-03    0.108848D+01    0.164509D+00   -0.331494D-02
   0    92    0.331930D-03    0.108986D+01   -0.966372D-01   -0.699530D-02
   0    93    0.336512D-03    0.109118D+01   -0.167163D+00   -0.104803D-01
   0    94    0.338786D-03    0.109266D+01    0.412588D-01   -0.143546D-01
   0    95    0.341343D-03    0.109395D+01   -0.107262D+00   -0.177747D-01
   0    96    0.342107D-03    0.109529D+01    0.919449D-01   -0.212588D-01
   0    97    0.346583D-03    0.109649D+01   -0.132142D+00   -0.244239D-01
   0    98    0.345627D-03    0.109755D+01   -0.571806D-01   -0.272207D-01
   0    99    0.338309D-03    0.109848D+01    0.164578D+00   -0.296437D-01
   0   100    0.344442D-03    0.109930D+01   -0.372588D-01   -0.317742D-01
   0   101    0.341445D-03    0.110009D+01   -0.751043D-01   -0.338117D-01
   0   102    0.343361D-03    0.110083D+01    0.958604D-02   -0.357470D-01
   0   103    0.348426D-03    0.110155D+01   -0.239415D+00   -0.376229D-01
   0   104    0.345263D-03    0.110225D+01   -0.544164D-01   -0.394126D-01
   0   105    0.344608D-03    0.110302D+01   -0.123270D+00   -0.414004D-01
   0   106    0.354210D-03    0.110368D+01   -0.626924D-01   -0.431106D-01
   0   107    0.352539D-03    0.110435D+01   -0.120267D+00   -0.448567D-01
   0   108    0.352073D-03    0.110496D+01    0.208645D+00   -0.464186D-01
   0   109    0.353097D-03    0.110542D+01   -0.659542D-03   -0.475462D-01
   0   110    0.355899D-03    0.110579D+01    0.239127D+00   -0.485000D-01
   0   111    0.362793D-03    0.110620D+01   -0.140963D+00   -0.495731D-01
   0   112    0.366562D-03    0.110663D+01    0.101506D+00   -0.506787D-01
   0   113    0.364109D-03    0.110699D+01   -0.291501D+00   -0.515747D-01
   0   114    0.366274D-03    0.110731D+01    0.526578D-01   -0.523752D-01
   0   115    0.365520D-03    0.110759D+01   -0.235899D+00   -0.531235D-01
   0   116    0.370968D-03    0.110790D+01    0.114786D+00   -0.538738D-01
   0   117    0.366240D-03    0.110814D+01   -0.977429D-01   -0.544983D-01
   0   118    0.377712D-03    0.110841D+01    0.156153D+00   -0.551490D-01
   0   119    0.377959D-03    0.110848D+01    0.134140D+00   -0.553717D-01
   0   120    0.386100D-03    0.110853D+01    0.397950D-01   -0.554939D-01
   0   121    0.377570D-03    0.110859D+01    0.204177D-01   -0.556184D-01
   0   122    0.382541D-03    0.110865D+01    0.891692D-01   -0.557989D-01
   0   123    0.389617D-03    0.110874D+01    0.229865D+00   -0.559809D-01
   0   124    0.387525D-03    0.110890D+01    0.239889D+00   -0.564445D-01
   0   125    0.399102D-03    0.110897D+01    0.207282D+00   -0.565674D-01
   0   126    0.396522D-03    0.110891D+01    0.353177D-01   -0.564246D-01
   0   127    0.404858D-03    0.110874D+01    0.118783D+00   -0.560213D-01
   0   128    0.398210D-03    0.110859D+01   -0.935637D-01   -0.556342D-01
   0   129    0.401084D-03    0.110846D+01    0.132760D+00   -0.552975D-01
   0   130    0.412345D-03    0.110826D+01   -0.202673D+00   -0.548057D-01
   0   131    0.417376D-03    0.110811D+01    0.226973D+00   -0.544294D-01
   0   132    0.421283D-03    0.110798D+01    0.225319D-02   -0.540632D-01
   0   133    0.426037D-03    0.110787D+01   -0.835347D-01   -0.537999D-01
   0   134    0.429813D-03    0.110762D+01   -0.104275D+00   -0.531958D-01
   0   135    0.435307D-03    0.110728D+01   -0.918488D-01   -0.522874D-01
   0   136    0.437691D-03    0.110695D+01    0.797195D-01   -0.514650D-01
   0   137    0.438037D-03    0.110667D+01    0.247860D+00   -0.507527D-01
   0   138    0.449685D-03    0.110632D+01    0.980873D-01   -0.498589D-01
   0   139    0.448663D-03    0.110596D+01   -0.189329D+00   -0.489479D-01
   0   140    0.451581D-03    0.110571D+01    0.874880D-01   -0.483062D-01
   0   141    0.460256D-03    0.110540D+01   -0.722278D-01   -0.475219D-01
   0   142    0.471778D-03    0.110501D+01    0.521086D-01   -0.465109D-01
   0   143    0.470364D-03    0.110472D+01   -0.541735D-01   -0.457855D-01
   0   144    0.476091D-03    0.110433D+01    0.161431D+00   -0.447719D-01
   0   145    0.481524D-03    0.110398D+01    0.276790D+00   -0.438406D-01
   0   146    0.482368D-03    0.110359D+01    0.127889D+00   -0.428548D-01
   0   147    0.492519D-03    0.110316D+01    0.352181D-01   -0.417372D-01
   0   148    0.509175D-03    0.110274D+01    0.970223D-01   -0.406636D-01
   0   149    0.515537D-03    0.110233D+01   -0.209356D-01   -0.396012D-01
   0   150    0.515630D-03    0.110177D+01    0.288692D-01   -0.381711D-01
   0   151    0.515560D-03    0.110131D+01    0.196497D+00   -0.369800D-01
   0   152    0.525385D-03    0.110091D+01   -0.161245D+00   -0.359173D-01
   0   153    0.545785D-03    0.110055D+01   -0.333969D+00   -0.350103D-01
   0   154    0.536637D-03    0.110019D+01   -0.212975D-01   -0.340433D-01
   0   155    0.552823D-03    0.109966D+01   -0.247766D+00   -0.326623D-01
   0   156    0.556589D-03    0.109914D+01   -0.225240D+00   -0.313443D-01
   0   157    0.558297D-03    0.109864D+01   -0.224063D+00   -0.300014D-01
   0   158    0.566521D-03    0.109806D+01   -0.265937D+00   -0.285038D-01
   0   159    0.577934D-03    0.109736D+01    0.347669D+00   -0.266942D-01
   0   160    0.583833D-03    0.109665D+01   -0.902186D-02   -0.247718D-01
   0   161    0.591822D-03    0.109597D+01    0.245462D+00   -0.229767D-01
   0   162    0.607035D-03    0.109532D+01   -0.137602D+00   -0.212959D-01
   0   163    0.610863D-03    0.109464D+01   -0.142510D+00   -0.195474D-01
   0   164    0.635249D-03    0.109407D+01    0.376022D+00   -0.180872D-01
   0   165    0.644696D-03    0.109328D+01   -0.195391D+00   -0.159767D-01
   0   166    0.656552D-03    0.109241D+01   -0.224137D-02   -0.136210D-01
   0   167    0.663504D-03    0.109163D+01   -0.243922D+00   -0.116520D-01
   0   168    0.687296D-03    0.109090D+01   -0.216957D+00   -0.962752D-02
   0   169    0.698659D-03    0.109001D+01    0.312244D+00   -0.727674D-02
   0   170    0.704389D-03    0.108913D+01    0.128642D+00   -0.502437D-02
   0   171    0.718110D-03    0.108843D+01   -0.321573D+00   -0.307717D-02
   0   172    0.750997D-03    0.108765D+01   -0.377049D+00   -0.103576D-02
   0   173    0.755656D-03    0.108692D+01   -0.488908D+00    0.834491D-03
   0   174    0.763709D-03    0.108619D+01   -0.369749D+00    0.279952D-02
   0   175    0.776009D-03    0.108546D+01   -0.159473D+00    0.471800D-02
   0   176    0.791553D-03    0.108478D+01    0.207139D+00    0.653533D-02
   0   177    0.821637D-03    0.108392D+01   -0.474651D+00    0.879055D-02
   0   178    0.835644D-03    0.108302D+01   -0.177252D-01    0.111258D-01
   0   179    0.858894D-03    0.108209D+01    0.442984D+00    0.136644D-01
   0   180    0.869859D-03    0.108096D+01   -0.976174D-02    0.165930D-01
   0   181    0.903348D-03    0.107992D+01    0.535180D+00    0.192974D-01
   0   182    0.925447D-03    0.107893D+01   -0.258917D+00    0.219483D-01
   0   183    0.941274D-03    0.107800D+01    0.855376D-01    0.243652D-01
   0   184    0.975077D-03    0.107699D+01    0.345718D+00    0.270019D-01
   0   185    0.100464D-02    0.107595D+01    0.376589D+00    0.297232D-01
   0   186    0.103965D-02    0.107510D+01   -0.524641D-01    0.320340D-01
   0   187    0.108471D-02    0.107407D+01   -0.819005D+00    0.346091D-01
   0   188    0.110112D-02    0.107305D+01    0.102323D+00    0.372322D-01
   0   189    0.115507D-02    0.107230D+01    0.712732D+00    0.392482D-01
   0   190    0.121225D-02    0.107141D+01    0.700529D+00    0.415642D-01
   0   191    0.124611D-02    0.107045D+01    0.877202D-02    0.440285D-01
   0   192    0.129038D-02    0.106967D+01   -0.461602D+00    0.458790D-01
   0   193    0.130361D-02    0.106892D+01    0.615111D-01    0.479358D-01
   0   194    0.132056D-02    0.106830D+01    0.475780D-01    0.495523D-01
   0   195    0.134930D-02    0.106771D+01   -0.712319D+00    0.510867D-01
   0   196    0.137699D-02    0.106709D+01    0.327788D-01    0.525366D-01
   0   197    0.143619D-02    0.106622D+01   -0.768070D+00    0.547760D-01
   0   198    0.151108D-02    0.106526D+01    0.673038D+00    0.571804D-01
   0   199    0.164540D-02    0.106428D+01   -0.839452D+00    0.596514D-01
   0   200    0.172657D-02    0.106356D+01   -0.396096D+00    0.613993D-01
   0   201    0.181819D-02    0.106312D+01   -0.113533D+01    0.626498D-01
   0   202    0.185015D-02    0.106297D+01    0.114156D+01    0.628575D-01
   0   203    0.188837D-02    0.106329D+01   -0.501430D+00    0.622377D-01
   0   204    0.191652D-02    0.106358D+01   -0.301504D+00    0.614326D-01
   0   205    0.194044D-02    0.106405D+01    0.820533D+00    0.602117D-01
   0   206    0.202220D-02    0.106423D+01   -0.898467D+00    0.597153D-01
   0   207    0.206538D-02    0.106473D+01    0.151002D-01    0.584757D-01
   0   208    0.213676D-02    0.106587D+01    0.224127D+00    0.557239D-01
   0   209    0.216058D-02    0.106719D+01    0.255074D+00    0.522789D-01
   0   210    0.227013D-02    0.106852D+01    0.385184D+00    0.487512D-01
   0   211    0.233310D-02    0.106999D+01   -0.167357D+01    0.450462D-01
   0   212    0.240921D-02    0.107217D+01   -0.118142D+01    0.393622D-01
   0   213    0.243168D-02    0.107392D+01    0.118085D+01    0.349182D-01
   0   214    0.256353D-02    0.107611D+01    0.102083D+01    0.291772D-01
   0   215    0.263827D-02    0.107849D+01   -0.523372D+00    0.228713D-01
   0   216    0.269718D-02    0.108048D+01   -0.612454D+00    0.176184D-01
   0   217    0.267538D-02    0.108254D+01   -0.120616D+01    0.124141D-01
   0   218    0.266510D-02    0.108408D+01   -0.794525D+00    0.835509D-02
   0   219    0.264705D-02    0.108491D+01    0.301423D+00    0.631980D-02
   0   220    0.263329D-02    0.108604D+01   -0.250167D+00    0.305810D-02
   0   221    0.269324D-02    0.108759D+01   -0.216359D+00   -0.979966D-03
   0   222    0.273665D-02    0.108915D+01    0.145620D+01   -0.532997D-02
   0   223    0.271815D-02    0.109040D+01   -0.810788D+00   -0.856947D-02
   0   224    0.270470D-02    0.109189D+01   -0.152003D+01   -0.124308D-01
   0   225    0.272551D-02    0.109400D+01   -0.117239D+01   -0.180295D-01
   0   226    0.280525D-02    0.109578D+01    0.766705D+00   -0.224679D-01
   0   227    0.283911D-02    0.109723D+01    0.797934D-01   -0.261663D-01
   0   228    0.281270D-02    0.109840D+01   -0.104873D+01   -0.295233D-01
   0   229    0.285348D-02    0.109996D+01   -0.303266D+00   -0.333136D-01
   0   230    0.286709D-02    0.110124D+01    0.478031D+00   -0.367926D-01
   0   231    0.284752D-02    0.110231D+01   -0.810886D-01   -0.394375D-01
   0   232    0.289063D-02    0.110328D+01   -0.145413D+01   -0.421584D-01
   0   233    0.299194D-02    0.110486D+01    0.286996D+00   -0.464161D-01
   0   234    0.299396D-02    0.110589D+01    0.737708D+00   -0.488535D-01
   0   235    0.303002D-02    0.110646D+01   -0.905827D+00   -0.503380D-01
   0   236    0.299934D-02    0.110708D+01   -0.147934D+01   -0.520603D-01
   0   237    0.300540D-02    0.110761D+01    0.104214D+01   -0.529961D-01
   0   238    0.305905D-02    0.110751D+01   -0.174715D+01   -0.531285D-01
   0   239    0.310978D-02    0.110758D+01   -0.275664D+00   -0.532119D-01
   0   240    0.315089D-02    0.110755D+01   -0.857181D+00   -0.530163D-01
   0   241    0.311564D-02    0.110824D+01    0.140647D+01   -0.547778D-01
   0   242    0.318767D-02    0.110841D+01   -0.222312D+01   -0.553370D-01
   0   243    0.326245D-02    0.110889D+01    0.149447D+01   -0.563276D-01
   0   244    0.321770D-02    0.110828D+01   -0.375262D+00   -0.549655D-01
   0   245    0.326095D-02    0.110827D+01    0.954681D+00   -0.547817D-01
   0   246    0.330367D-02    0.110796D+01    0.198609D+01   -0.539661D-01
   0   247    0.339226D-02    0.110812D+01   -0.168355D+01   -0.546004D-01
   0   248    0.347117D-02    0.110792D+01    0.624745D+00   -0.539119D-01
   0   249    0.341293D-02    0.110731D+01    0.179448D+01   -0.521569D-01
   0   250    0.351276D-02    0.110742D+01   -0.821056D+00   -0.523879D-01
   0   251    0.355590D-02    0.110726D+01   -0.980590D+00   -0.520364D-01
   0   252    0.362895D-02    0.110703D+01    0.104790D+00   -0.514940D-01
   0   253    0.363439D-02    0.110632D+01   -0.116147D+01   -0.495804D-01
   0   254    0.371866D-02    0.110565D+01   -0.129745D+01   -0.481999D-01
   0   255    0.380171D-02    0.110509D+01   -0.173348D+01   -0.467462D-01
   0   256    0.384534D-02    0.110465D+01   -0.841707D+00   -0.456871D-01
   0   257    0.386882D-02    0.110436D+01    0.177969D+01   -0.446701D-01
   0   258    0.398192D-02    0.110436D+01    0.520122D-01   -0.446007D-01
   0   259    0.407934D-02    0.110343D+01    0.168579D+01   -0.423752D-01
   0   260    0.413300D-02    0.110211D+01   -0.228636D+01   -0.388919D-01
   0   261    0.422219D-02    0.110109D+01    0.205899D+01   -0.365029D-01
   0   262    0.428931D-02    0.110094D+01    0.234129D+01   -0.357887D-01
   0   263    0.437836D-02    0.110043D+01    0.120720D+01   -0.344285D-01
   0   264    0.437044D-02    0.109925D+01    0.145623D+01   -0.315850D-01
   0   265    0.453341D-02    0.109851D+01   -0.255558D+01   -0.298365D-01
   0   266    0.470146D-02    0.109772D+01   -0.296633D+01   -0.277267D-01
   0   267    0.473830D-02    0.109688D+01    0.229318D+01   -0.254454D-01
   0   268    0.481398D-02    0.109519D+01    0.241235D+01   -0.210500D-01
   0   269    0.493141D-02    0.109451D+01    0.656789D+00   -0.192265D-01
   0   270    0.505236D-02    0.109317D+01    0.128090D+01   -0.153618D-01
   0   271    0.524530D-02    0.109169D+01    0.810796D+00   -0.119659D-01
   0   272    0.539689D-02    0.109085D+01    0.256889D+01   -0.938234D-02
   0   273    0.558988D-02    0.108913D+01   -0.109615D+01   -0.499694D-02
   0   274    0.587737D-02    0.108813D+01   -0.435489D+01   -0.231934D-02
   0   275    0.594210D-02    0.108652D+01    0.283003D+01    0.200065D-02
   0   276    0.613462D-02    0.108472D+01    0.170402D+01    0.664158D-02
   0   277    0.619457D-02    0.108361D+01   -0.247801D+01    0.983812D-02
   0   278    0.647411D-02    0.108250D+01   -0.305109D+01    0.125506D-01
   0   279    0.677635D-02    0.108150D+01    0.128589D+01    0.150786D-01
   0   280    0.690169D-02    0.108120D+01   -0.429973D+01    0.164295D-01
   0   281    0.709468D-02    0.107922D+01   -0.354515D+01    0.208223D-01
   0   282    0.725722D-02    0.107836D+01    0.121814D+01    0.233787D-01
   0   283    0.741509D-02    0.107689D+01    0.710662D+00    0.269544D-01
   0   284    0.783549D-02    0.107613D+01   -0.268029D+01    0.296696D-01
   0   285    0.832378D-02    0.107383D+01    0.128192D+01    0.352430D-01
   0   286    0.865156D-02    0.107184D+01    0.406650D+01    0.405765D-01
   0   287    0.913997D-02    0.107030D+01    0.557623D+01    0.446096D-01
   0   288    0.979170D-02    0.106795D+01   -0.416242D+01    0.498302D-01
   0   289    0.105598D-01    0.106602D+01    0.319408D+01    0.555480D-01
   0   290    0.112330D-01    0.106564D+01    0.859416D+00    0.560641D-01
   0   291    0.117288D-01    0.106507D+01    0.420104D+00    0.580023D-01
   0   292    0.122949D-01    0.106399D+01   -0.703133D+00    0.599548D-01
   0   293    0.127456D-01    0.106382D+01    0.752510D+01    0.610740D-01
   0   294    0.137107D-01    0.106316D+01    0.584950D+01    0.621957D-01
   0   295    0.142830D-01    0.106309D+01   -0.115433D+01    0.631191D-01
   0   296    0.152510D-01    0.106301D+01    0.220680D+01    0.624522D-01
   0   297    0.158361D-01    0.106413D+01    0.681143D+01    0.608815D-01
   0   298    0.165294D-01    0.106527D+01   -0.210816D+01    0.579053D-01
   0   299    0.168930D-01    0.106714D+01    0.876798D+01    0.533399D-01
   0   300    0.177147D-01    0.106738D+01   -0.100790D+02    0.510301D-01
   0   301    0.185170D-01    0.106782D+01    0.302560D+01    0.500747D-01
   0   302    0.185479D-01    0.106982D+01    0.110120D+02    0.446444D-01
   0   303    0.190145D-01    0.107192D+01   -0.602956D+01    0.411745D-01
   0   304    0.192508D-01    0.107433D+01    0.134918D+02    0.327527D-01
   0   305    0.202648D-01    0.107642D+01    0.922104D+01    0.291343D-01
   0   306    0.203810D-01    0.107891D+01   -0.919625D+00    0.226282D-01
   0   307    0.211472D-01    0.108028D+01   -0.138007D+02    0.190698D-01
   0   308    0.211991D-01    0.108454D+01    0.224273D-01    0.745775D-02
   0   309    0.216475D-01    0.108723D+01   -0.121685D+01   -0.144629D-02
   0   310    0.218514D-01    0.108735D+01    0.102358D+02    0.279276D-03
   0   311    0.221641D-01    0.109042D+01   -0.111409D+02   -0.888667D-02
   0   312    0.224763D-01    0.109212D+01    0.926542D+01   -0.117715D-01
   0   313    0.229987D-01    0.109369D+01   -0.428525D+01   -0.176390D-01
   0   314    0.227957D-01    0.109609D+01   -0.795845D+00   -0.220098D-01
   0   315    0.233382D-01    0.109696D+01    0.744857D+01   -0.264514D-01
   0   316    0.235871D-01    0.109903D+01   -0.105870D+02   -0.314063D-01
   0   317    0.241241D-01    0.110052D+01    0.109869D+02   -0.341120D-01
   0   318    0.244341D-01    0.110367D+01    0.164048D+02   -0.419098D-01
   0   319    0.250482D-01    0.110454D+01    0.105917D+02   -0.451064D-01
   0   320    0.247463D-01    0.110485D+01    0.119361D+02   -0.466807D-01
   0   321    0.257235D-01    0.110601D+01   -0.401383D+01   -0.482346D-01
   0   322    0.260029D-01    0.110702D+01    0.103594D+02   -0.525731D-01
   0   323    0.263645D-01    0.110887D+01   -0.640656D+01   -0.550300D-01
   0   324    0.270048D-01    0.110804D+01   -0.538818D+01   -0.525469D-01
   0   325    0.273637D-01    0.110942D+01    0.125459D+02   -0.582092D-01
   0   326    0.279478D-01    0.110750D+01    0.527212D+01   -0.528918D-01
   0   327    0.286396D-01    0.110974D+01   -0.875369D+01   -0.583811D-01
   0   328    0.296202D-01    0.111004D+01   -0.147397D+02   -0.600701D-01
   0   329    0.299479D-01    0.110755D+01    0.112504D+02   -0.531163D-01
   0   330    0.308629D-01    0.110643D+01   -0.998472D+01   -0.500691D-01
   0   331    0.313256D-01    0.110531D+01   -0.123877D+02   -0.486168D-01
   0   332    0.323913D-01    0.110734D+01   -0.143565D+02   -0.510305D-01
   0   333    0.334682D-01    0.110414D+01    0.176634D+02   -0.441982D-01
   0   334    0.344329D-01    0.110197D+01   -0.689549D+01   -0.394211D-01
   0   335    0.354617D-01    0.110297D+01   -0.111459D+02   -0.405767D-01
   0   336    0.363654D-01    0.110164D+01   -0.180044D+02   -0.394485D-01
   0   337    0.381270D-01    0.110034D+01    0.127515D+02   -0.347137D-01
   0   338    0.393454D-01    0.109808D+01   -0.994630D+01   -0.266564D-01
   0   339    0.419009D-01    0.109472D+01   -0.190692D+02   -0.213452D-01
   0   340    0.434908D-01    0.109514D+01    0.125283D+02   -0.194619D-01
   0   341    0.458055D-01    0.109151D+01   -0.441679D+01   -0.111510D-01
   0   342    0.484238D-01    0.108650D+01    0.330089D+02    0.452385D-03
   0   343    0.540187D-01    0.108467D+01    0.298578D+00    0.540528D-02
   0   344    0.574830D-01    0.108347D+01   -0.104689D+02    0.987468D-02
   0   345    0.633272D-01    0.107981D+01   -0.339270D+02    0.178131D-01
   0   346    0.709558D-01    0.107555D+01   -0.537927D+02    0.337981D-01
   0   347    0.788284D-01    0.107525D+01    0.238725D+02    0.284895D-01
   0   348    0.872739D-01    0.107751D+01    0.371593D+02    0.236621D-01
   0   349    0.996683D-01    0.107570D+01   -0.737958D+02    0.316926D-01
   0   350    0.110471D+00    0.107655D+01    0.525980D+00    0.305965D-01
   0   351    0.120512D+00    0.108030D+01   -0.591428D+02    0.213015D-01
   0   352    0.131784D+00    0.108365D+01   -0.702379D+02    0.727322D-02
   0   353    0.145736D+00    0.108349D+01   -0.730038D+02    0.930672D-02
   0   354    0.157583D+00    0.108702D+01    0.645486D+01    0.106826D-02
   0   355    0.172613D+00    0.108717D+01   -0.248691D+02   -0.231036D-02
   0   356    0.185530D+00    0.109600D+01   -0.349546D+02   -0.211840D-01
   0   357    0.194631D+00    0.110807D+01   -0.403204D+02   -0.550039D-01
   0   358    0.214210D+00    0.111280D+01    0.565257D+02   -0.625421D-01
   0   359    0.229906D+00    0.111608D+01   -0.699094D+02   -0.756276D-01
   0   360    0.256249D+00    0.111437D+01    0.518658D+02   -0.683553D-01
   0   361    0.286438D+00    0.109757D+01   -0.780958D+02   -0.300921D-01
   0   362    0.272060D+00    0.103984D+01    0.126553D+03    0.117773D+00
   0   363    0.145201D+00    0.823735D+00    0.167257D+03    0.320676D+00
   0   364    0.448370D-01    0.479806D+00    0.608392D+02    0.372401D+00
   0   365    0.113205D-01    0.237410D+00    0.291275D+02    0.384430D+00
   0   366    0.267882D-02    0.107847D+00    0.404953D+01    0.388453D+00
   0   367    0.618034D-03    0.468477D-01    0.808263D+00    0.390006D+00
   0   368    0.136622D-03    0.197802D-01    0.335563D+00    0.390638D+00
   0   369    0.293461D-04    0.820812D-02    0.765095D-01    0.390899D+00
   0   370    0.606210D-05    0.336753D-02    0.120632D-01    0.391007D+00
   0   371    0.127767D-05    0.137126D-02    0.320495D-02    0.391051D+00
   0   372    0.271352D-06    0.555404D-03    0.399758D-03    0.391069D+00
   0   373    0.554043D-07    0.224066D-03    0.985456D-04    0.391076D+00
   0   374    0.111497D-07    0.901197D-04    0.271436D-04    0.391079D+00
   0   375    0.225449D-08    0.361591D-04    0.546700D-05    0.391080D+00
   0   376    0.459474D-09    0.144800D-04    0.129334D-05    0.391081D+00
   0   377    0.922005D-10    0.578924D-05    0.161822D-06    0.391081D+00
   0   378    0.184925D-10    0.231152D-05    0.361449D-07    0.391081D+00
   0   379    0.370670D-11    0.921923D-06    0.103937D-07    0.391081D+00
   0   380    0.751722D-12    0.367366D-06    0.150886D-08    0.391081D+00
   0   381    0.149295D-12    0.146279D-06    0.341772D-09    0.391081D+00
   0   382    0.299150D-13    0.582100D-07    0.637406D-10    0.391081D+00
   0   383    0.600800D-14    0.231526D-07    0.128272D-10    0.391081D+00
   0   384    0.118280D-14    0.920507D-08    0.223984D-11    0.391081D+00
   0   385    0.232492D-15    0.365858D-08    0.650396D-12    0.391081D+00
   0   386    0.466058D-16    0.145372D-08    0.721864D-13    0.391081D+00
   0   387    0.927458D-17    0.577504D-09    0.144713D-13    0.391081D+00
   0   388    0.184612D-17    0.229377D-09    0.483564D-14    0.391081D+00
   0   389    0.365231D-18    0.910920D-10    0.841667D-15    0.391081D+00
   0   390    0.718141D-19    0.361704D-10    0.157264D-15    0.391081D+00
   0   391    0.142113D-19    0.143608D-10    0.293467D-16    0.391081D+00
   0   392    0.277843D-20    0.570106D-11    0.745953D-17    0.391081D+00
   0   393    0.546157D-21    0.226304D-11    0.921712D-18    0.391081D+00
   0   394    0.107492D-21    0.898225D-12    0.268914D-18    0.391081D+00
   0   395    0.211415D-22    0.356460D-12    0.417507D-19    0.391081D+00
   0   396    0.412298D-23    0.141388D-12    0.999562D-20    0.391081D+00
   0   397    0.813741D-24    0.559206D-13    0.143045D-20    0.391081D+00