variables =  "IG"  "JG"  "PHI"  "Temp."  "Latent_heat"  "mm"
ZONE  I=  401  J=  101
   0     0    0.100000D+01    0.941473D+00    0.000000D+00    0.256349D+00
   0     1    0.100000D+01    0.941473D+00    0.000000D+00    0.256349D+00
   0     2    0.100000D+01    0.942084D+00    0.000000D+00    0.255830D+00
   0     3    0.100000D+01    0.943302D+00    0.000000D+00    0.254787D+00
   0     4    0.100000D+01    0.945117D+00    0.000000D+00    0.253212D+00
   0     5    0.100000D+01    0.947514D+00    0.000000D+00    0.251089D+00
   0     6    0.100000D+01    0.950474D+00    0.000000D+00    0.248400D+00
   0     7    0.100000D+01    0.953975D+00    0.000000D+00    0.245121D+00
   0     8    0.100000D+01    0.957988D+00    0.000000D+00    0.241223D+00
   0     9    0.100000D+01    0.962483D+00    0.000000D+00    0.236674D+00
   0    10    0.100000D+01    0.967423D+00    0.000000D+00    0.231438D+00
   0    11    0.100000D+01    0.972772D+00    0.000000D+00    0.225476D+00
   0    12    0.100000D+01    0.978486D+00    0.000000D+00    0.218746D+00
   0    13    0.100000D+01    0.984523D+00    0.000000D+00    0.211207D+00
   0    14    0.100000D+01    0.990837D+00    0.000000D+00    0.202822D+00
   0    15    0.100000D+01    0.997378D+00    0.000000D+00    0.193558D+00
   0    16    0.100000D+01    0.100410D+01    0.000000D+00    0.183392D+00
   0    17    0.100000D+01    0.101095D+01    0.000000D+00    0.172318D+00
   0    18    0.100000D+01    0.101787D+01    0.000000D+00    0.160353D+00
   0    19    0.100000D+01    0.102482D+01    0.000000D+00    0.147539D+00
   0    20    0.100000D+01    0.103174D+01    0.145853D-10    0.133955D+00
   0    21    0.100000D+01    0.103859D+01    0.000000D+00    0.119716D+00
   0    22    0.100000D+01    0.104530D+01   -0.204194D-09    0.104980D+00
   0    23    0.100000D+01    0.105184D+01    0.204194D-09    0.899387D-01
   0    24    0.100000D+01    0.105816D+01   -0.987424D-08    0.748169D-01
   0    25    0.100000D+01    0.106420D+01    0.229281D-07    0.598570D-01
   0    26    0.100000D+01    0.106993D+01    0.268909D-06    0.453066D-01
   0    27    0.100000D+01    0.107530D+01   -0.790448D-05    0.314042D-01
   0    28    0.100000D+01    0.108028D+01   -0.772319D-04    0.183661D-01
   0    29    0.999999D+00    0.108482D+01    0.244729D-03    0.637627D-02
   0    30    0.999991D+00    0.108891D+01   -0.435558D-02   -0.442088D-02
   0    31    0.999932D+00    0.109251D+01    0.202721D-01   -0.139263D-01
   0    32    0.999487D+00    0.109560D+01    0.359670D+00   -0.220787D-01
   0    33    0.996215D+00    0.109813D+01   -0.142445D+01   -0.286982D-01
   0    34    0.971945D+00    0.110021D+01   -0.885283D+01   -0.342087D-01
   0    35    0.809486D+00    0.110047D+01    0.935014D+02   -0.335600D-01
   0    36    0.145482D+00    0.109873D+01    0.863014D+02   -0.318413D-01
   0    37    0.195609D-01    0.110174D+01    0.629932D+01   -0.382746D-01
   0    38    0.266551D-02    0.110088D+01    0.151875D+01   -0.358792D-01
   0    39    0.429862D-03    0.109958D+01   -0.315355D-01   -0.324916D-01
   0    40    0.127363D-03    0.109788D+01   -0.442590D-01   -0.280340D-01
   0    41    0.956629D-04    0.109581D+01   -0.573201D-01   -0.226177D-01
   0    42    0.121711D-03    0.109353D+01    0.545097D-01   -0.166120D-01
   0    43    0.203769D-03    0.109130D+01    0.269108D-01   -0.107359D-01
   0    44    0.362195D-03    0.108963D+01    0.222456D+00   -0.635065D-02
   0    45    0.539655D-03    0.108875D+01   -0.384358D+00   -0.403605D-02
   0    46    0.648931D-03    0.108839D+01    0.365057D+00   -0.301855D-02
   0    47    0.698081D-03    0.108813D+01   -0.534026D-01   -0.236156D-02
   0    48    0.733878D-03    0.108761D+01   -0.159010D-01   -0.102986D-02
   0    49    0.762537D-03    0.108680D+01   -0.322611D-01    0.117116D-02
   0    50    0.783909D-03    0.108608D+01   -0.464572D+00    0.309821D-02
   0    51    0.782080D-03    0.108551D+01   -0.120864D+00    0.454355D-02
   0    52    0.800651D-03    0.108515D+01    0.524506D+00    0.556208D-02
   0    53    0.782050D-03    0.108500D+01   -0.457475D+00    0.595389D-02
   0    54    0.774711D-03    0.108520D+01    0.432789D+00    0.540280D-02
   0    55    0.765529D-03    0.108557D+01    0.398482D+00    0.439813D-02
   0    56    0.779963D-03    0.108601D+01   -0.419435D+00    0.327288D-02
   0    57    0.781216D-03    0.108592D+01   -0.256965D+00    0.345119D-02
   0    58    0.770199D-03    0.108553D+01    0.403833D-01    0.454236D-02
   0    59    0.795731D-03    0.108474D+01   -0.112778D+00    0.665168D-02
   0    60    0.810280D-03    0.108372D+01    0.470192D-01    0.931152D-02
   0    61    0.829051D-03    0.108250D+01   -0.485304D+00    0.125061D-01
   0    62    0.876266D-03    0.108127D+01   -0.128190D-01    0.157722D-01
   0    63    0.918640D-03    0.107996D+01    0.357624D+00    0.192533D-01
   0    64    0.939577D-03    0.107868D+01    0.169657D+00    0.226073D-01
   0    65    0.960203D-03    0.107751D+01   -0.458654D+00    0.256520D-01
   0    66    0.100119D-02    0.107655D+01    0.228136D+00    0.281518D-01
   0    67    0.101929D-02    0.107572D+01   -0.313472D+00    0.303301D-01
   0    68    0.107407D-02    0.107469D+01   -0.737001D+00    0.330065D-01
   0    69    0.109346D-02    0.107390D+01   -0.211842D+00    0.350712D-01
   0    70    0.114003D-02    0.107285D+01   -0.919644D+00    0.377571D-01
   0    71    0.116415D-02    0.107192D+01   -0.398037D+00    0.402140D-01
   0    72    0.119666D-02    0.107104D+01    0.754110D+00    0.425316D-01
   0    73    0.123049D-02    0.107024D+01    0.574298D+00    0.445503D-01
   0    74    0.127824D-02    0.106948D+01    0.398387D+00    0.465165D-01
   0    75    0.129716D-02    0.106863D+01    0.696842D+00    0.486267D-01
   0    76    0.133563D-02    0.106766D+01   -0.741406D+00    0.511348D-01
   0    77    0.139726D-02    0.106677D+01   -0.482363D+00    0.534687D-01
   0    78    0.145875D-02    0.106580D+01   -0.949367D+00    0.558683D-01
   0    79    0.156029D-02    0.106484D+01   -0.106698D+00    0.581477D-01
   0    80    0.167797D-02    0.106408D+01    0.652157D+00    0.602001D-01
   0    81    0.178801D-02    0.106343D+01   -0.455007D+00    0.618344D-01
   0    82    0.186436D-02    0.106298D+01    0.865343D+00    0.629794D-01
   0    83    0.196757D-02    0.106318D+01   -0.133538D+01    0.623017D-01
   0    84    0.202591D-02    0.106364D+01    0.800596D+00    0.611261D-01
   0    85    0.204460D-02    0.106412D+01   -0.809185D+00    0.600632D-01
   0    86    0.206286D-02    0.106462D+01   -0.502740D+00    0.587907D-01
   0    87    0.209449D-02    0.106546D+01   -0.412263D+00    0.565662D-01
   0    88    0.215592D-02    0.106603D+01    0.109618D+01    0.551019D-01
   0    89    0.219248D-02    0.106673D+01    0.536760D+00    0.532744D-01
   0    90    0.222670D-02    0.106790D+01   -0.389803D+00    0.503908D-01
   0    91    0.233435D-02    0.106948D+01   -0.115068D+01    0.463933D-01
   0    92    0.240319D-02    0.107164D+01   -0.667937D+00    0.409153D-01
   0    93    0.250028D-02    0.107340D+01   -0.150601D+01    0.362926D-01
   0    94    0.254210D-02    0.107532D+01   -0.178619D+01    0.312441D-01
   0    95    0.255726D-02    0.107739D+01    0.118728D+01    0.257896D-01
   0    96    0.262450D-02    0.107960D+01   -0.183048D+01    0.202214D-01
   0    97    0.261650D-02    0.108129D+01    0.131271D+01    0.155807D-01
   0    98    0.266534D-02    0.108305D+01    0.157464D+01    0.108070D-01
   0    99    0.269572D-02    0.108461D+01   -0.151235D+00    0.687842D-02
   0   100    0.263527D-02    0.108623D+01   -0.416580D+00    0.253829D-02
   0   101    0.268741D-02    0.108813D+01    0.139643D+01   -0.261069D-02
   0   102    0.269029D-02    0.109022D+01   -0.121420D+01   -0.787620D-02
   0   103    0.272998D-02    0.109142D+01   -0.162900D+01   -0.110208D-01
   0   104    0.274561D-02    0.109307D+01    0.180481D+01   -0.154851D-01
   0   105    0.277266D-02    0.109457D+01    0.424637D+00   -0.194557D-01
   0   106    0.278556D-02    0.109590D+01    0.161335D+01   -0.228741D-01
   0   107    0.286251D-02    0.109753D+01   -0.130234D+01   -0.270016D-01
   0   108    0.285066D-02    0.109889D+01   -0.344735D+00   -0.306431D-01
   0   109    0.284930D-02    0.109997D+01   -0.462851D+00   -0.333432D-01
   0   110    0.287385D-02    0.110091D+01    0.321276D+00   -0.361161D-01
   0   111    0.280153D-02    0.110191D+01   -0.989088D+00   -0.384916D-01
   0   112    0.288409D-02    0.110293D+01    0.118249D+01   -0.411081D-01
   0   113    0.293292D-02    0.110411D+01    0.178385D+01   -0.441167D-01
   0   114    0.296413D-02    0.110512D+01    0.172341D+01   -0.466593D-01
   0   115    0.296071D-02    0.110577D+01   -0.161991D+01   -0.485142D-01
   0   116    0.299506D-02    0.110674D+01    0.980387D+00   -0.508521D-01
   0   117    0.298346D-02    0.110724D+01    0.297401D+00   -0.522914D-01
   0   118    0.301786D-02    0.110743D+01    0.157434D+01   -0.526337D-01
   0   119    0.306389D-02    0.110801D+01   -0.176969D+01   -0.541046D-01
   0   120    0.312628D-02    0.110826D+01   -0.331741D+00   -0.549657D-01
   0   121    0.315681D-02    0.110843D+01    0.159628D+01   -0.554243D-01
   0   122    0.319054D-02    0.110846D+01   -0.641102D+00   -0.551682D-01
   0   123    0.324123D-02    0.110869D+01    0.125716D+01   -0.557378D-01
   0   124    0.325435D-02    0.110864D+01    0.145181D+01   -0.555032D-01
   0   125    0.329893D-02    0.110880D+01    0.254295D+00   -0.560765D-01
   0   126    0.335586D-02    0.110852D+01    0.206668D+00   -0.552383D-01
   0   127    0.337630D-02    0.110813D+01   -0.184649D+01   -0.546120D-01
   0   128    0.346263D-02    0.110779D+01    0.200586D+01   -0.538185D-01
   0   129    0.345714D-02    0.110737D+01   -0.653684D+00   -0.526860D-01
   0   130    0.357569D-02    0.110729D+01   -0.118590D+01   -0.525426D-01
   0   131    0.355593D-02    0.110689D+01   -0.153289D+01   -0.514316D-01
   0   132    0.365237D-02    0.110688D+01    0.175659D+00   -0.514664D-01
   0   133    0.371669D-02    0.110622D+01   -0.153116D+01   -0.497333D-01
   0   134    0.376520D-02    0.110569D+01   -0.107893D+01   -0.480263D-01
   0   135    0.381178D-02    0.110529D+01   -0.156937D+01   -0.473311D-01
   0   136    0.393228D-02    0.110456D+01   -0.228389D+01   -0.451195D-01
   0   137    0.411781D-02    0.110388D+01   -0.296936D-01   -0.437384D-01
   0   138    0.401361D-02    0.110292D+01    0.215660D+01   -0.408728D-01
   0   139    0.412596D-02    0.110235D+01    0.319934D+00   -0.394118D-01
   0   140    0.419061D-02    0.110157D+01   -0.254924D+01   -0.376006D-01
   0   141    0.430128D-02    0.110056D+01   -0.989416D+00   -0.347719D-01
   0   142    0.439735D-02    0.110020D+01    0.140489D+01   -0.339681D-01
   0   143    0.444146D-02    0.109873D+01   -0.157229D+01   -0.302501D-01
   0   144    0.458092D-02    0.109786D+01   -0.256354D+01   -0.282445D-01
   0   145    0.465405D-02    0.109694D+01    0.324488D+00   -0.254372D-01
   0   146    0.473581D-02    0.109537D+01    0.143547D+01   -0.214741D-01
   0   147    0.494958D-02    0.109453D+01    0.260041D+01   -0.193127D-01
   0   148    0.499247D-02    0.109390D+01   -0.251495D+01   -0.172686D-01
   0   149    0.522096D-02    0.109240D+01    0.310512D+01   -0.136743D-01
   0   150    0.532476D-02    0.109108D+01   -0.909586D-01   -0.102053D-01
   0   151    0.545584D-02    0.108938D+01    0.296410D+01   -0.585083D-02
   0   152    0.574528D-02    0.108821D+01    0.223162D+01   -0.244841D-02
   0   153    0.575963D-02    0.108661D+01   -0.399259D+01    0.146254D-02
   0   154    0.603075D-02    0.108522D+01    0.252325D+01    0.556487D-02
   0   155    0.616028D-02    0.108440D+01   -0.192955D+00    0.779097D-02
   0   156    0.630318D-02    0.108268D+01   -0.356007D+01    0.118616D-01
   0   157    0.657137D-02    0.108080D+01    0.252111D+01    0.172702D-01
   0   158    0.689063D-02    0.107932D+01   -0.340487D+01    0.206764D-01
   0   159    0.708419D-02    0.107815D+01   -0.924407D-01    0.245148D-01
   0   160    0.735819D-02    0.107703D+01    0.163870D+01    0.272458D-01
   0   161    0.767385D-02    0.107540D+01    0.265525D+01    0.312109D-01
   0   162    0.798986D-02    0.107354D+01   -0.475979D+01    0.362062D-01
   0   163    0.836766D-02    0.107284D+01    0.257753D+01    0.380596D-01
   0   164    0.873314D-02    0.107133D+01   -0.550074D+01    0.413336D-01
   0   165    0.900928D-02    0.106954D+01   -0.418137D+01    0.461677D-01
   0   166    0.947677D-02    0.106845D+01   -0.131305D+01    0.493175D-01
   0   167    0.100441D-01    0.106697D+01    0.516985D+01    0.527915D-01
   0   168    0.109158D-01    0.106588D+01   -0.735185D+01    0.552073D-01
   0   169    0.116782D-01    0.106437D+01   -0.422633D+01    0.592477D-01
   0   170    0.126109D-01    0.106317D+01    0.663574D+01    0.628134D-01
   0   171    0.135227D-01    0.106166D+01   -0.103526D+02    0.670890D-01
   0   172    0.139451D-01    0.106229D+01   -0.435534D+01    0.646587D-01
   0   173    0.144458D-01    0.106254D+01   -0.114600D+02    0.636230D-01
   0   174    0.145754D-01    0.106317D+01    0.502279D+01    0.630183D-01
   0   175    0.154244D-01    0.106437D+01    0.193492D+01    0.598254D-01
   0   176    0.159164D-01    0.106513D+01    0.538835D+01    0.577275D-01
   0   177    0.170710D-01    0.106605D+01   -0.664472D+01    0.547612D-01
   0   178    0.177314D-01    0.106788D+01   -0.156201D+01    0.503071D-01
   0   179    0.183473D-01    0.106910D+01   -0.971800D+01    0.475217D-01
   0   180    0.186080D-01    0.107089D+01   -0.777506D+01    0.422274D-01
   0   181    0.190048D-01    0.107313D+01   -0.840616D+01    0.376996D-01
   0   182    0.195977D-01    0.107527D+01    0.824485D+01    0.312686D-01
   0   183    0.198778D-01    0.107743D+01    0.950836D+01    0.266058D-01
   0   184    0.207422D-01    0.108100D+01   -0.383552D+01    0.171345D-01
   0   185    0.216485D-01    0.108401D+01   -0.985222D+00    0.844505D-02
   0   186    0.219025D-01    0.108704D+01   -0.616478D+01   -0.868478D-03
   0   187    0.221464D-01    0.108883D+01   -0.793797D+01   -0.420050D-02
   0   188    0.222505D-01    0.109137D+01   -0.583707D+00   -0.116247D-01
   0   189    0.222634D-01    0.109423D+01   -0.727577D+01   -0.173325D-01
   0   190    0.231010D-01    0.109479D+01    0.461539D+01   -0.209097D-01
   0   191    0.231536D-01    0.109653D+01    0.106451D+02   -0.253854D-01
   0   192    0.233758D-01    0.109881D+01    0.535669D+01   -0.301494D-01
   0   193    0.241640D-01    0.109915D+01   -0.167989D+02   -0.321280D-01
   0   194    0.244190D-01    0.110170D+01   -0.115948D+02   -0.370395D-01
   0   195    0.246735D-01    0.110296D+01   -0.104397D+02   -0.414642D-01
   0   196    0.252065D-01    0.110541D+01    0.120657D+02   -0.470157D-01
   0   197    0.255082D-01    0.110551D+01    0.594391D+01   -0.463810D-01
   0   198    0.259299D-01    0.110527D+01    0.935377D+01   -0.462864D-01
   0   199    0.263237D-01    0.110688D+01    0.941775D+01   -0.518804D-01
   0   200    0.268163D-01    0.110739D+01   -0.146719D+02   -0.514431D-01
   0   201    0.271854D-01    0.110756D+01    0.157943D+02   -0.511894D-01
   0   202    0.281106D-01    0.110812D+01   -0.204439D+02   -0.545637D-01
   0   203    0.287760D-01    0.110880D+01    0.400875D+01   -0.568908D-01
   0   204    0.289318D-01    0.111071D+01    0.399642D+01   -0.595102D-01
   0   205    0.291680D-01    0.110890D+01    0.156821D+02   -0.547290D-01
   0   206    0.303360D-01    0.110862D+01   -0.105149D+02   -0.549768D-01
   0   207    0.313295D-01    0.110598D+01   -0.770815D+01   -0.499538D-01
   0   208    0.319630D-01    0.110691D+01    0.103863D+02   -0.502643D-01
   0   209    0.333866D-01    0.110517D+01   -0.137765D+02   -0.462545D-01
   0   210    0.343728D-01    0.110503D+01   -0.168373D+02   -0.463895D-01
   0   211    0.347720D-01    0.110300D+01    0.104879D+02   -0.419724D-01
   0   212    0.361818D-01    0.110010D+01    0.740952D+01   -0.355890D-01
   0   213    0.382609D-01    0.110016D+01   -0.229223D+02   -0.328185D-01
   0   214    0.395423D-01    0.109819D+01    0.112623D+02   -0.300490D-01
   0   215    0.414970D-01    0.109364D+01    0.226855D+02   -0.173890D-01
   0   216    0.447943D-01    0.109261D+01   -0.152701D+02   -0.135296D-01
   0   217    0.488574D-01    0.108856D+01   -0.308954D+02   -0.168089D-02
   0   218    0.507980D-01    0.108676D+01    0.143387D+02    0.296311D-02
   0   219    0.561670D-01    0.108123D+01   -0.383241D+02    0.152579D-01
   0   220    0.616946D-01    0.107967D+01    0.354838D+01    0.179432D-01
   0   221    0.654862D-01    0.108079D+01    0.894926D+01    0.177214D-01
   0   222    0.727384D-01    0.107511D+01   -0.310751D+01    0.338061D-01
   0   223    0.794946D-01    0.107317D+01    0.105866D+01    0.356837D-01
   0   224    0.895075D-01    0.107237D+01    0.295130D+02    0.401452D-01
   0   225    0.101146D+00    0.107203D+01    0.139696D+02    0.394305D-01
   0   226    0.112842D+00    0.107700D+01   -0.635379D+02    0.292477D-01
   0   227    0.122895D+00    0.107878D+01   -0.175410D+02    0.198453D-01
   0   228    0.135452D+00    0.108199D+01   -0.681345D+02    0.135605D-01
   0   229    0.146533D+00    0.108197D+01    0.331309D+02    0.118949D-01
   0   230    0.157749D+00    0.108702D+01   -0.345567D+02    0.482018D-02
   0   231    0.169850D+00    0.109423D+01   -0.349077D+02   -0.227104D-01
   0   232    0.186128D+00    0.110005D+01   -0.269312D+02   -0.303575D-01
   0   233    0.197812D+00    0.110735D+01   -0.852796D+00   -0.499354D-01
   0   234    0.212920D+00    0.111446D+01   -0.735606D+02   -0.733116D-01
   0   235    0.234782D+00    0.111478D+01   -0.611601D+02   -0.708983D-01
   0   236    0.259788D+00    0.110966D+01   -0.142800D+03   -0.609800D-01
   0   237    0.289659D+00    0.109067D+01   -0.199870D+02   -0.732603D-02
   0   238    0.250301D+00    0.100491D+01    0.586195D+02    0.184670D+00
   0   239    0.107592D+00    0.720495D+00    0.223772D+03    0.345765D+00
   0   240    0.302982D-01    0.393707D+00    0.654609D+02    0.377623D+00
   0   241    0.736259D-02    0.187672D+00    0.160010D+02    0.386107D+00
   0   242    0.167882D-02    0.837052D-01    0.284668D+01    0.389090D+00
   0   243    0.384162D-03    0.358810D-01    0.714083D+00    0.390266D+00
   0   244    0.838469D-04    0.150186D-01    0.143371D+00    0.390747D+00
   0   245    0.175166D-04    0.619287D-02    0.425048D-01    0.390944D+00
   0   246    0.365463D-05    0.252878D-02    0.650938D-02    0.391025D+00
   0   247    0.770969D-06    0.102571D-02    0.139295D-02    0.391059D+00
   0   248    0.159357D-06    0.414134D-03    0.377983D-03    0.391072D+00
   0   249    0.335412D-07    0.166656D-03    0.726020D-04    0.391078D+00
   0   250    0.676598D-08    0.669034D-04    0.136410D-04    0.391080D+00
   0   251    0.135922D-08    0.268091D-04    0.351269D-05    0.391081D+00
   0   252    0.279553D-09    0.107276D-04    0.759112D-06    0.391081D+00
   0   253    0.554984D-10    0.428781D-05    0.942354D-07    0.391081D+00
   0   254    0.112364D-10    0.171226D-05    0.178522D-07    0.391081D+00
   0   255    0.219611D-11    0.683230D-06    0.394031D-08    0.391081D+00
   0   256    0.439573D-12    0.272444D-06    0.798272D-09    0.391081D+00
   0   257    0.879566D-13    0.108577D-06    0.221035D-09    0.391081D+00
   0   258    0.180514D-13    0.432493D-07    0.484698D-10    0.391081D+00
   0   259    0.354438D-14    0.172199D-07    0.619658D-11    0.391081D+00
   0   260    0.701425D-15    0.685354D-08    0.146429D-11    0.391081D+00
   0   261    0.139643D-15    0.272683D-08    0.221382D-12    0.391081D+00
   0   262    0.269860D-16    0.108463D-08    0.612351D-13    0.391081D+00
   0   263    0.528411D-17    0.431326D-09    0.136494D-13    0.391081D+00
   0   264    0.104645D-17    0.171494D-09    0.183469D-14    0.391081D+00
   0   265    0.205564D-18    0.681752D-10    0.579813D-15    0.391081D+00
   0   266    0.418913D-19    0.270990D-10    0.110060D-15    0.391081D+00
   0   267    0.820502D-20    0.107707D-10    0.161077D-16    0.391081D+00
   0   268    0.160453D-20    0.428058D-11    0.427809D-17    0.391081D+00
   0   269    0.313519D-21    0.170115D-11    0.695802D-18    0.391081D+00
   0   270    0.623711D-22    0.676036D-12    0.159449D-18    0.391081D+00
   0   271    0.125049D-22    0.268650D-12    0.185732D-19    0.391081D+00
   0   272    0.246066D-23    0.106757D-12    0.598406D-20    0.391081D+00
   0   273    0.481196D-24    0.424232D-13    0.127036D-20    0.391081D+00
   0   274    0.943285D-25    0.168580D-13    0.217932D-21    0.391081D+00
   0   275    0.182897D-25    0.669895D-14    0.461020D-22    0.391081D+00
   0   276    0.358785D-26    0.266196D-14    0.774185D-23    0.391081D+00
   0   277    0.709630D-27    0.105777D-14    0.151268D-23    0.391081D+00
   0   278    0.140675D-27    0.420312D-15    0.357561D-24    0.391081D+00
   0   279    0.273034D-28    0.167009D-15    0.506845D-25    0.391081D+00
   0   280    0.532045D-29    0.663584D-16    0.154083D-25    0.391081D+00
   0   281    0.104724D-29    0.263653D-16    0.237837D-26    0.391081D+00
   0   282    0.202991D-30    0.104748D-16    0.498766D-27    0.391081D+00
   0   283    0.396297D-31    0.416137D-17    0.903106D-28    0.391081D+00
   0   284    0.794336D-32    0.165308D-17    0.115565D-28    0.391081D+00
   0   285    0.155817D-32    0.656627D-18    0.348267D-29    0.391081D+00
   0   286    0.305948D-33    0.260798D-18    0.760807D-30    0.391081D+00
   0   287    0.593320D-34    0.103573D-18    0.149638D-30    0.391081D+00
   0   288    0.114643D-34    0.411287D-19    0.331368D-31    0.391081D+00
   0   289    0.224018D-35    0.163303D-19    0.434788D-32    0.391081D+00
   0   290    0.442650D-36    0.648320D-20    0.967497D-33    0.391081D+00
   0   291    0.853475D-37    0.257354D-20    0.227058D-33    0.391081D+00
   0   292    0.167546D-37    0.102144D-20    0.279243D-34    0.391081D+00
   0   293    0.327941D-38    0.405360D-21    0.587639D-35    0.391081D+00
   0   294    0.638365D-39    0.160845D-21    0.114215D-35    0.391081D+00
   0   295    0.123057D-39    0.638134D-22    0.317309D-36    0.391081D+00
   0   296    0.243161D-40    0.253138D-22    0.448133D-37    0.391081D+00
   0   297    0.466543D-41    0.100402D-22    0.114823D-37    0.391081D+00
   0   298    0.929316D-42    0.398169D-23    0.167719D-38    0.391081D+00
   0   299    0.180155D-42    0.157882D-23    0.326953D-39    0.391081D+00
   0   300    0.353517D-43    0.625953D-24    0.573152D-40    0.391081D+00
   0   301    0.690624D-44    0.248139D-24    0.120335D-40    0.391081D+00
   0   302    0.138483D-44    0.983544D-25    0.279135D-41    0.391081D+00
   0   303    0.269375D-45    0.389799D-25    0.478137D-42    0.391081D+00
   0   304    0.530384D-46    0.154468D-25    0.117435D-42    0.391081D+00
   0   305    0.102493D-46    0.612051D-26    0.199413D-43    0.391081D+00
   0   306    0.199016D-47    0.242489D-26    0.465247D-44    0.391081D+00
   0   307    0.387651D-48    0.960627D-27    0.101791D-44    0.391081D+00
   0   308    0.751493D-49    0.380520D-27    0.127215D-45    0.391081D+00
   0   309    0.146396D-49    0.150717D-27    0.414629D-46    0.391081D+00
   0   310    0.289298D-50    0.596916D-28    0.757580D-47    0.391081D+00
   0   311    0.564713D-51    0.236392D-28    0.139664D-47    0.391081D+00
   0   312    0.111485D-51    0.936098D-29    0.243914D-48    0.391081D+00
   0   313    0.219702D-52    0.370667D-29    0.617110D-49    0.391081D+00
   0   314    0.428661D-53    0.146765D-29    0.940051D-50    0.391081D+00
   0   315    0.831096D-54    0.581087D-30    0.184587D-50    0.391081D+00
   0   316    0.161610D-54    0.230060D-30    0.325756D-51    0.391081D+00
   0   317    0.316544D-55    0.910807D-31    0.704368D-52    0.391081D+00
   0   318    0.619781D-56    0.360578D-31    0.147325D-52    0.391081D+00
   0   319    0.120615D-56    0.142746D-31    0.241717D-53    0.391081D+00
   0   320    0.235383D-57    0.565096D-32    0.562469D-54    0.391081D+00
   0   321    0.463447D-58    0.223707D-32    0.112420D-54    0.391081D+00
   0   322    0.900367D-59    0.885599D-33    0.158036D-55    0.391081D+00
   0   323    0.174041D-59    0.350591D-33    0.481844D-56    0.391081D+00
   0   324    0.343795D-60    0.138795D-33    0.542353D-57    0.391081D+00
   0   325    0.656554D-61    0.549490D-34    0.156149D-57    0.391081D+00
   0   326    0.130007D-61    0.217552D-34    0.346862D-58    0.391081D+00
   0   327    0.253416D-62    0.861366D-35    0.689090D-59    0.391081D+00
   0   328    0.499954D-63    0.341066D-35    0.985992D-60    0.391081D+00
   0   329    0.975434D-64    0.135058D-35    0.159843D-60    0.391081D+00
   0   330    0.191155D-64    0.534856D-36    0.327133D-61    0.391081D+00
   0   331    0.375638D-65    0.211833D-36    0.776121D-62    0.391081D+00
   0   332    0.725342D-66    0.839059D-37    0.150987D-62    0.391081D+00
   0   333    0.139864D-66    0.332385D-37    0.392733D-63    0.391081D+00
   0   334    0.274413D-67    0.131687D-37    0.604238D-64    0.391081D+00
   0   335    0.534413D-68    0.521799D-38    0.111326D-64    0.391081D+00
   0   336    0.105497D-68    0.206788D-38    0.245287D-65    0.391081D+00
   0   337    0.203336D-69    0.819620D-39    0.491522D-66    0.391081D+00
   0   338    0.392147D-70    0.324916D-39    0.680082D-67    0.391081D+00
   0   339    0.772908D-71    0.128826D-39    0.138632D-67    0.391081D+00
   0   340    0.152640D-71    0.510874D-40    0.300748D-68    0.391081D+00
   0   341    0.292393D-72    0.202631D-40    0.822595D-69    0.391081D+00
   0   342    0.582451D-73    0.803863D-41    0.982988D-70    0.391081D+00
   0   343    0.112836D-73    0.318968D-41    0.230732D-70    0.391081D+00
   0   344    0.219331D-74    0.126591D-41    0.457772D-71    0.391081D+00
   0   345    0.434716D-75    0.502515D-42    0.120992D-71    0.391081D+00
   0   346    0.844795D-76    0.199522D-42    0.141944D-72    0.391081D+00
   0   347    0.162088D-76    0.792376D-43    0.402428D-73    0.391081D+00
   0   348    0.318191D-77    0.314753D-43    0.807329D-74    0.391081D+00
   0   349    0.617387D-78    0.125057D-43    0.153274D-74    0.391081D+00
   0   350    0.119278D-78    0.496989D-44    0.339074D-75    0.391081D+00
   0   351    0.234503D-79    0.197554D-44    0.417273D-76    0.391081D+00
   0   352    0.459777D-80    0.785469D-45    0.104630D-76    0.391081D+00
   0   353    0.912254D-81    0.312373D-45    0.155775D-77    0.391081D+00
   0   354    0.177928D-81    0.124257D-45    0.441646D-78    0.391081D+00
   0   355    0.346004D-82    0.494388D-46    0.831505D-79    0.391081D+00
   0   356    0.683203D-83    0.196751D-46    0.179562D-79    0.391081D+00
   0   357    0.133381D-83    0.783190D-47    0.232777D-80    0.391081D+00
   0   358    0.262471D-84    0.311829D-47    0.430917D-81    0.391081D+00
   0   359    0.513517D-85    0.124184D-47    0.945828D-82    0.391081D+00
   0   360    0.998360D-86    0.494663D-48    0.246255D-82    0.391081D+00
   0   361    0.194216D-86    0.197083D-48    0.424349D-83    0.391081D+00
   0   362    0.379538D-87    0.785389D-49    0.807224D-84    0.391081D+00
   0   363    0.739771D-88    0.313049D-49    0.194363D-84    0.391081D+00
   0   364    0.144066D-88    0.124804D-49    0.274834D-85    0.391081D+00
   0   365    0.282966D-89    0.497664D-50    0.668743D-86    0.391081D+00
   0   366    0.558615D-90    0.198486D-50    0.105049D-86    0.391081D+00
   0   367    0.109996D-90    0.791785D-51    0.190760D-87    0.391081D+00
   0   368    0.215696D-91    0.315913D-51    0.496285D-88    0.391081D+00
   0   369    0.420719D-92    0.126069D-51    0.770370D-89    0.391081D+00
   0   370    0.808074D-93    0.503186D-52    0.154860D-89    0.391081D+00
   0   371    0.155980D-93    0.200874D-52    0.346559D-90    0.391081D+00
   0   372    0.311225D-94    0.802035D-53    0.470387D-91    0.391081D+00
   0   373    0.610410D-95    0.320283D-53    0.148044D-91    0.391081D+00
   0   374    0.120172D-95    0.127921D-53    0.273235D-92    0.391081D+00
   0   375    0.233464D-96    0.510998D-54    0.480144D-93    0.391081D+00
   0   376    0.457482D-97    0.204155D-54    0.101532D-93    0.391081D+00
   0   377    0.882125D-98    0.815758D-55    0.203478D-94    0.391081D+00
   0   378    0.173369D-98    0.326004D-55    0.388771D-95    0.391081D+00
   0   379    0.336421D-99    0.130299D-55    0.925718D-96    0.391081D+00
   0   380    0.650112-100    0.520851D-56    0.138958D-96    0.391081D+00
   0   381    0.127933-100    0.208227D-56    0.289692D-97    0.391081D+00
   0   382    0.254964-101    0.832551D-57    0.613635D-98    0.391081D+00
   0   383    0.496471-102    0.332913D-57    0.132915D-98    0.391081D+00
   0   384    0.951661-103    0.133136D-57    0.209668D-99    0.391081D+00
   0   385    0.186378-103    0.532476D-58    0.469125-100    0.391081D+00
   0   386    0.363013-104    0.212982D-58    0.601713-101    0.391081D+00
   0   387    0.684686-105    0.851968D-59    0.206524-101    0.391081D+00
   0   388    0.134661-105    0.340829D-59    0.321849-102    0.391081D+00
   0   389    0.265426-106    0.136358D-59    0.461649-103    0.391081D+00
   0   390    0.519980-107    0.545571D-60    0.125993-103    0.391081D+00
   0   391    0.985433-108    0.218297D-60    0.180850-104    0.391081D+00
   0   392    0.193459-108    0.873505D-61    0.537496-105    0.391081D+00
   0   393    0.383740-109    0.349544D-61    0.966346-106    0.391081D+00
   0   394    0.754785-110    0.139878D-61    0.196962-106    0.391081D+00
   0   395    0.144937-110    0.559731D-62    0.315487-107    0.391081D+00
   0   396    0.282008-111    0.223881D-62    0.757162-108    0.391081D+00
   0   397    0.551295-112    0.892898D-63    0.945677-109    0.391081D+00