variables =  "IG"  "JG"  "PHI"  "Temp."  "Latent_heat"  "mm"
ZONE  I=  401  J=  101
   0     0    0.100000D+01    0.918402D+00    0.000000D+00    0.273948D+00
   0     1    0.100000D+01    0.918402D+00    0.000000D+00    0.273948D+00
   0     2    0.100000D+01    0.919185D+00    0.000000D+00    0.273409D+00
   0     3    0.100000D+01    0.920745D+00    0.000000D+00    0.272323D+00
   0     4    0.100000D+01    0.923066D+00    0.000000D+00    0.270679D+00
   0     5    0.100000D+01    0.926129D+00    0.000000D+00    0.268457D+00
   0     6    0.100000D+01    0.929907D+00    0.000000D+00    0.265631D+00
   0     7    0.100000D+01    0.934367D+00    0.000000D+00    0.262167D+00
   0     8    0.100000D+01    0.939470D+00    0.000000D+00    0.258027D+00
   0     9    0.100000D+01    0.945172D+00    0.000000D+00    0.253163D+00
   0    10    0.100000D+01    0.951424D+00    0.000000D+00    0.247521D+00
   0    11    0.100000D+01    0.958172D+00    0.000000D+00    0.241041D+00
   0    12    0.100000D+01    0.965359D+00    0.000000D+00    0.233656D+00
   0    13    0.100000D+01    0.972926D+00    0.000000D+00    0.225299D+00
   0    14    0.100000D+01    0.980808D+00    0.000000D+00    0.215900D+00
   0    15    0.100000D+01    0.988942D+00    0.000000D+00    0.205394D+00
   0    16    0.100000D+01    0.997261D+00    0.000000D+00    0.193727D+00
   0    17    0.100000D+01    0.100570D+01    0.000000D+00    0.180867D+00
   0    18    0.100000D+01    0.101419D+01    0.000000D+00    0.166810D+00
   0    19    0.100000D+01    0.102267D+01    0.000000D+00    0.151598D+00
   0    20    0.100000D+01    0.103106D+01    0.000000D+00    0.135328D+00
   0    21    0.100000D+01    0.103931D+01   -0.291706D-10    0.118162D+00
   0    22    0.100000D+01    0.104736D+01    0.320876D-09    0.100330D+00
   0    23    0.100000D+01    0.105513D+01    0.195443D-08    0.821296D-01
   0    24    0.100000D+01    0.106258D+01    0.112161D-07    0.639031D-01
   0    25    0.100000D+01    0.106965D+01    0.188092D-06    0.460196D-01
   0    26    0.100000D+01    0.107628D+01    0.606033D-06    0.288438D-01
   0    27    0.100000D+01    0.108242D+01   -0.725501D-06    0.127097D-01
   0    28    0.100000D+01    0.108803D+01   -0.701297D-04   -0.210131D-02
   0    29    0.999998D+00    0.109305D+01   -0.114373D-02   -0.153719D-01
   0    30    0.999987D+00    0.109746D+01    0.839931D-02   -0.269487D-01
   0    31    0.999909D+00    0.110121D+01    0.589706D-01   -0.367287D-01
   0    32    0.999334D+00    0.110428D+01    0.125504D+00   -0.446552D-01
   0    33    0.995239D+00    0.110670D+01   -0.780226D+00   -0.508450D-01
   0    34    0.965912D+00    0.110788D+01    0.820759D+01   -0.538830D-01
   0    35    0.780577D+00    0.110776D+01   -0.106873D+02   -0.533039D-01
   0    36    0.132206D+00    0.110683D+01   -0.538037D+02   -0.526056D-01
   0    37    0.174155D-01    0.110332D+01   -0.530497D+01   -0.422316D-01
   0    38    0.246078D-02    0.109990D+01   -0.350245D+00   -0.333445D-01
   0    39    0.438382D-03    0.109679D+01   -0.213416D+00   -0.251989D-01
   0    40    0.167697D-03    0.109417D+01   -0.866323D-01   -0.183140D-01
   0    41    0.179688D-03    0.109215D+01    0.702486D-01   -0.129762D-01
   0    42    0.287120D-03    0.109112D+01    0.151869D+00   -0.102513D-01
   0    43    0.436284D-03    0.109120D+01   -0.176699D+00   -0.104649D-01
   0    44    0.553314D-03    0.109173D+01    0.224744D+00   -0.118901D-01
   0    45    0.614970D-03    0.109197D+01   -0.212112D+00   -0.125169D-01
   0    46    0.673019D-03    0.109106D+01   -0.417371D-01   -0.101114D-01
   0    47    0.800979D-03    0.108893D+01    0.288003D+00   -0.450804D-02
   0    48    0.105089D-02    0.108552D+01    0.359988D+00    0.458344D-02
   0    49    0.170988D-02    0.108180D+01   -0.755680D+00    0.144307D-01
   0    50    0.276204D-02    0.107858D+01   -0.168671D+01    0.229706D-01
   0    51    0.343361D-02    0.107703D+01   -0.111072D+01    0.268369D-01
   0    52    0.303393D-02    0.107664D+01    0.149075D+01    0.279718D-01
   0    53    0.202166D-02    0.107665D+01    0.187735D+00    0.279726D-01
   0    54    0.144169D-02    0.107631D+01   -0.795434D+00    0.288630D-01
   0    55    0.123130D-02    0.107517D+01   -0.727513D+00    0.317563D-01
   0    56    0.122183D-02    0.107326D+01   -0.503247D+00    0.366348D-01
   0    57    0.137675D-02    0.107109D+01   -0.106021D+01    0.422609D-01
   0    58    0.162411D-02    0.106922D+01   -0.656076D+00    0.471211D-01
   0    59    0.198288D-02    0.106790D+01    0.913238D+00    0.504176D-01
   0    60    0.229232D-02    0.106797D+01   -0.132072D+01    0.501529D-01
   0    61    0.242372D-02    0.106964D+01    0.161545D+01    0.459569D-01
   0    62    0.248201D-02    0.107162D+01   -0.577002D+00    0.409104D-01
   0    63    0.247102D-02    0.107317D+01    0.906165D+00    0.368056D-01
   0    64    0.251046D-02    0.107506D+01   -0.510084D-01    0.319502D-01
   0    65    0.249272D-02    0.107643D+01    0.767910D+00    0.284626D-01
   0    66    0.257753D-02    0.107803D+01   -0.402117D-01    0.242723D-01
   0    67    0.259512D-02    0.108011D+01   -0.113092D+01    0.188459D-01
   0    68    0.258853D-02    0.108174D+01    0.156877D+01    0.144371D-01
   0    69    0.259543D-02    0.108350D+01    0.447426D+00    0.965629D-02
   0    70    0.260269D-02    0.108516D+01    0.156933D+01    0.543578D-02
   0    71    0.268142D-02    0.108670D+01    0.280817D+00    0.139488D-02
   0    72    0.276140D-02    0.108874D+01   -0.157648D+01   -0.392559D-02
   0    73    0.276459D-02    0.109048D+01   -0.340738D+00   -0.864601D-02
   0    74    0.276852D-02    0.109204D+01    0.863304D+00   -0.128028D-01
   0    75    0.275971D-02    0.109442D+01   -0.112627D+01   -0.190027D-01
   0    76    0.273444D-02    0.109555D+01    0.122944D+01   -0.219133D-01
   0    77    0.274202D-02    0.109680D+01   -0.969782D+00   -0.254371D-01
   0    78    0.280355D-02    0.109842D+01   -0.176531D+01   -0.292801D-01
   0    79    0.287503D-02    0.109961D+01   -0.532903D+00   -0.323845D-01
   0    80    0.292297D-02    0.110088D+01    0.438374D+00   -0.360763D-01
   0    81    0.290366D-02    0.110222D+01   -0.114424D+01   -0.392719D-01
   0    82    0.294469D-02    0.110312D+01    0.288169D+00   -0.416945D-01
   0    83    0.299547D-02    0.110416D+01    0.388690D+00   -0.443080D-01
   0    84    0.295374D-02    0.110516D+01    0.189386D+01   -0.470298D-01
   0    85    0.297691D-02    0.110559D+01    0.150141D+01   -0.481372D-01
   0    86    0.301418D-02    0.110626D+01   -0.151129D+01   -0.498484D-01
   0    87    0.305465D-02    0.110667D+01   -0.779775D+00   -0.507007D-01
   0    88    0.309170D-02    0.110689D+01   -0.664423D+00   -0.515427D-01
   0    89    0.311757D-02    0.110747D+01    0.906804D+00   -0.526800D-01
   0    90    0.309114D-02    0.110765D+01   -0.881084D+00   -0.532227D-01
   0    91    0.311135D-02    0.110799D+01    0.628621D-01   -0.542482D-01
   0    92    0.316689D-02    0.110839D+01   -0.170726D+01   -0.551392D-01
   0    93    0.322328D-02    0.110878D+01   -0.144109D+01   -0.560666D-01
   0    94    0.327163D-02    0.110877D+01    0.980034D-01   -0.559089D-01
   0    95    0.321556D-02    0.110884D+01    0.277889D+01   -0.562430D-01
   0    96    0.326098D-02    0.110851D+01    0.177451D+01   -0.555679D-01
   0    97    0.334054D-02    0.110844D+01   -0.742092D+00   -0.551003D-01
   0    98    0.334134D-02    0.110862D+01    0.936262D+00   -0.556967D-01
   0    99    0.338480D-02    0.110838D+01   -0.405918D+00   -0.552324D-01
   0   100    0.352673D-02    0.110826D+01   -0.371165D+00   -0.550842D-01
   0   101    0.354013D-02    0.110758D+01    0.503503D+00   -0.529744D-01
   0   102    0.355065D-02    0.110712D+01   -0.114327D+01   -0.521386D-01
   0   103    0.363519D-02    0.110674D+01    0.110899D+01   -0.508083D-01
   0   104    0.371285D-02    0.110643D+01    0.210875D+01   -0.500136D-01
   0   105    0.371852D-02    0.110580D+01    0.109708D+01   -0.486349D-01
   0   106    0.381222D-02    0.110530D+01    0.129225D+01   -0.474645D-01
   0   107    0.389162D-02    0.110452D+01   -0.277276D+01   -0.451603D-01
   0   108    0.394512D-02    0.110425D+01    0.777024D+00   -0.443064D-01
   0   109    0.404275D-02    0.110327D+01   -0.193286D+01   -0.421143D-01
   0   110    0.406980D-02    0.110251D+01    0.209399D+01   -0.401114D-01
   0   111    0.416657D-02    0.110199D+01    0.709459D+00   -0.386567D-01
   0   112    0.421940D-02    0.110117D+01    0.980527D+00   -0.364506D-01
   0   113    0.432947D-02    0.110013D+01    0.102736D+01   -0.336783D-01
   0   114    0.446884D-02    0.110005D+01    0.101665D+01   -0.336831D-01
   0   115    0.452540D-02    0.109844D+01   -0.260051D+01   -0.292285D-01
   0   116    0.457301D-02    0.109709D+01    0.206833D+01   -0.262941D-01
   0   117    0.469739D-02    0.109594D+01    0.190983D+01   -0.230108D-01
   0   118    0.486056D-02    0.109496D+01    0.378869D+00   -0.200828D-01
   0   119    0.497113D-02    0.109359D+01    0.120948D+01   -0.168335D-01
   0   120    0.513188D-02    0.109245D+01    0.185771D+01   -0.133837D-01
   0   121    0.527262D-02    0.109107D+01    0.258941D+01   -0.100848D-01
   0   122    0.557822D-02    0.108951D+01    0.238869D+01   -0.613612D-02
   0   123    0.570790D-02    0.108821D+01   -0.298227D+01   -0.243918D-02
   0   124    0.601621D-02    0.108599D+01   -0.467406D+01    0.345973D-02
   0   125    0.618586D-02    0.108465D+01   -0.178461D+01    0.687740D-02
   0   126    0.648747D-02    0.108248D+01    0.296208D+01    0.122516D-01
   0   127    0.669470D-02    0.108067D+01    0.156274D+01    0.177477D-01
   0   128    0.708887D-02    0.107992D+01    0.249012D+00    0.191057D-01
   0   129    0.734987D-02    0.107846D+01   -0.631149D+00    0.234254D-01
   0   130    0.744045D-02    0.107677D+01   -0.199416D+01    0.279424D-01
   0   131    0.787967D-02    0.107505D+01   -0.345796D+01    0.319269D-01
   0   132    0.827986D-02    0.107373D+01   -0.496604D+00    0.350678D-01
   0   133    0.857256D-02    0.107260D+01    0.182876D+01    0.386639D-01
   0   134    0.911739D-02    0.107042D+01   -0.693295D+01    0.440535D-01
   0   135    0.959474D-02    0.106815D+01   -0.305351D+01    0.494418D-01
   0   136    0.103610D-01    0.106673D+01    0.156934D+01    0.533956D-01
   0   137    0.109541D-01    0.106521D+01   -0.786914D+00    0.571342D-01
   0   138    0.115530D-01    0.106427D+01    0.532663D+01    0.600908D-01
   0   139    0.122755D-01    0.106389D+01   -0.441841D+01    0.612631D-01
   0   140    0.129250D-01    0.106437D+01   -0.328923D+01    0.596189D-01
   0   141    0.137711D-01    0.106313D+01    0.363379D+01    0.622048D-01
   0   142    0.147433D-01    0.106220D+01    0.413802D+01    0.644561D-01
   0   143    0.154427D-01    0.106322D+01   -0.899628D+01    0.617878D-01
   0   144    0.160364D-01    0.106407D+01    0.435709D+01    0.602864D-01
   0   145    0.162599D-01    0.106419D+01   -0.239770D+01    0.597330D-01
   0   146    0.167113D-01    0.106676D+01    0.534584D+01    0.540241D-01
   0   147    0.172597D-01    0.106800D+01   -0.565888D+01    0.495945D-01
   0   148    0.185897D-01    0.106995D+01   -0.314913D+01    0.459674D-01
   0   149    0.192564D-01    0.107227D+01   -0.248848D+01    0.387143D-01
   0   150    0.197066D-01    0.107574D+01   -0.275453D+01    0.296525D-01
   0   151    0.206540D-01    0.107864D+01   -0.983433D+01    0.229117D-01
   0   152    0.206698D-01    0.108090D+01   -0.133617D+02    0.172751D-01
   0   153    0.211410D-01    0.108206D+01   -0.627269D+01    0.126721D-01
   0   154    0.216157D-01    0.108482D+01   -0.353538D+01    0.525520D-02
   0   155    0.217740D-01    0.108651D+01    0.438964D+01    0.126368D-02
   0   156    0.218321D-01    0.108819D+01   -0.484555D+01   -0.333104D-02
   0   157    0.224904D-01    0.109165D+01   -0.757802D+01   -0.124183D-01
   0   158    0.227019D-01    0.109439D+01    0.204599D+00   -0.190933D-01
   0   159    0.231979D-01    0.109665D+01   -0.117247D+02   -0.264025D-01
   0   160    0.239488D-01    0.109832D+01   -0.450382D+01   -0.297883D-01
   0   161    0.237627D-01    0.109982D+01    0.122675D+02   -0.318870D-01
   0   162    0.239675D-01    0.110210D+01    0.169438D+02   -0.396423D-01
   0   163    0.246572D-01    0.110399D+01   -0.951395D+01   -0.431942D-01
   0   164    0.248710D-01    0.110403D+01    0.362941D+01   -0.452999D-01
   0   165    0.254556D-01    0.110602D+01   -0.544629D+01   -0.480543D-01
   0   166    0.254675D-01    0.110596D+01    0.400178D+01   -0.473569D-01
   0   167    0.260437D-01    0.110662D+01    0.959232D+01   -0.518767D-01
   0   168    0.267195D-01    0.110811D+01   -0.515865D+01   -0.533702D-01
   0   169    0.275681D-01    0.110841D+01    0.123274D+02   -0.534466D-01
   0   170    0.279407D-01    0.110760D+01    0.100201D+02   -0.525677D-01
   0   171    0.285307D-01    0.110789D+01   -0.144764D+02   -0.543578D-01
   0   172    0.289140D-01    0.111003D+01    0.453236D+01   -0.598180D-01
   0   173    0.296182D-01    0.110927D+01   -0.904413D+01   -0.559573D-01
   0   174    0.304811D-01    0.110752D+01   -0.180300D+02   -0.534716D-01
   0   175    0.306884D-01    0.110545D+01   -0.295489D+01   -0.474563D-01
   0   176    0.315768D-01    0.110644D+01    0.168038D+02   -0.515587D-01
   0   177    0.326893D-01    0.110678D+01    0.917896D+01   -0.524879D-01
   0   178    0.332202D-01    0.110504D+01    0.154964D+02   -0.447247D-01
   0   179    0.341905D-01    0.110494D+01   -0.211748D+02   -0.469936D-01
   0   180    0.351241D-01    0.110198D+01    0.113723D+02   -0.384886D-01
   0   181    0.365699D-01    0.109995D+01   -0.220354D+02   -0.347555D-01
   0   182    0.385621D-01    0.109951D+01   -0.163438D+02   -0.326886D-01
   0   183    0.402955D-01    0.109754D+01    0.121881D+02   -0.270541D-01
   0   184    0.428565D-01    0.109469D+01   -0.136884D+02   -0.192131D-01
   0   185    0.447006D-01    0.109232D+01   -0.252655D+02   -0.139660D-01
   0   186    0.476329D-01    0.109047D+01    0.155121D+02   -0.690352D-02
   0   187    0.506010D-01    0.108802D+01   -0.309420D+02    0.451592D-03
   0   188    0.542313D-01    0.108473D+01    0.209116D+02    0.628130D-02
   0   189    0.584303D-01    0.108235D+01   -0.451034D+02    0.122153D-01
   0   190    0.626999D-01    0.107989D+01    0.725473D+01    0.211524D-01
   0   191    0.707165D-01    0.107483D+01    0.178802D+02    0.307747D-01
   0   192    0.778560D-01    0.107498D+01   -0.269562D+02    0.348862D-01
   0   193    0.867571D-01    0.107364D+01    0.452319D+02    0.361373D-01
   0   194    0.971824D-01    0.107633D+01    0.372526D+02    0.300389D-01
   0   195    0.108190D+00    0.107684D+01    0.541293D+02    0.290196D-01
   0   196    0.120378D+00    0.107749D+01   -0.312072D+01    0.287725D-01
   0   197    0.133422D+00    0.107900D+01    0.237649D+02    0.176396D-01
   0   198    0.144225D+00    0.108409D+01   -0.436977D+02    0.687721D-02
   0   199    0.155910D+00    0.108930D+01   -0.221412D+02   -0.623465D-02
   0   200    0.170613D+00    0.109465D+01    0.317471D+02   -0.219226D-01
   0   201    0.180504D+00    0.109971D+01   -0.437344D+02   -0.380837D-01
   0   202    0.193323D+00    0.110587D+01    0.882946D+01   -0.461034D-01
   0   203    0.212677D+00    0.110613D+01   -0.121259D+03   -0.529517D-01
   0   204    0.235863D+00    0.111127D+01   -0.119288D+03   -0.647193D-01
   0   205    0.256538D+00    0.110914D+01   -0.181393D+02   -0.590296D-01
   0   206    0.276164D+00    0.108534D+01   -0.105010D+03    0.653035D-02
   0   207    0.226522D+00    0.983495D+00    0.153312D+03    0.216405D+00
   0   208    0.903598D-01    0.675778D+00    0.147365D+03    0.352935D+00
   0   209    0.251088D-01    0.363645D+00    0.387397D+02    0.379157D+00
   0   210    0.623559D-02    0.173296D+00    0.808706D+01    0.386559D+00
   0   211    0.144229D-02    0.772755D-01    0.289871D+01    0.389254D+00
   0   212    0.322557D-03    0.331739D-01    0.571757D+00    0.390329D+00
   0   213    0.700473D-04    0.139199D-01    0.116139D+00    0.390771D+00
   0   214    0.147910D-04    0.575866D-02    0.412950D-01    0.390954D+00
   0   215    0.318754D-05    0.236012D-02    0.770619D-02    0.391029D+00
   0   216    0.665782D-06    0.961185D-03    0.163290D-02    0.391060D+00
   0   217    0.136668D-06    0.389683D-03    0.258682D-03    0.391073D+00
   0   218    0.278192D-07    0.157452D-03    0.782484D-04    0.391078D+00
   0   219    0.575138D-08    0.634509D-04    0.123102D-04    0.391080D+00
   0   220    0.118146D-08    0.255150D-04    0.239243D-05    0.391081D+00
   0   221    0.235325D-09    0.102416D-04    0.608203D-06    0.391081D+00
   0   222    0.478232D-10    0.410460D-05    0.121709D-06    0.391081D+00
   0   223    0.971694D-11    0.164279D-05    0.218479D-07    0.391081D+00
   0   224    0.188946D-11    0.656699D-06    0.562497D-08    0.391081D+00
   0   225    0.383384D-12    0.262228D-06    0.576665D-09    0.391081D+00
   0   226    0.775977D-13    0.104607D-06    0.116459D-09    0.391081D+00
   0   227    0.152040D-13    0.416924D-07    0.300040D-10    0.391081D+00
   0   228    0.312691D-14    0.166034D-07    0.476468D-11    0.391081D+00
   0   229    0.622127D-15    0.660716D-08    0.166136D-11    0.391081D+00
   0   230    0.122697D-15    0.262748D-08    0.210025D-12    0.391081D+00
   0   231    0.243278D-16    0.104424D-08    0.474732D-13    0.391081D+00
   0   232    0.482445D-17    0.414784D-09    0.849722D-14    0.391081D+00
   0   233    0.963217D-18    0.164676D-09    0.205310D-14    0.391081D+00
   0   234    0.189318D-18    0.653505D-10    0.366253D-15    0.391081D+00
   0   235    0.375022D-19    0.259238D-10    0.653159D-16    0.391081D+00
   0   236    0.750410D-20    0.102801D-10    0.175778D-16    0.391081D+00
   0   237    0.149787D-20    0.407536D-11    0.351759D-17    0.391081D+00
   0   238    0.292617D-21    0.161516D-11    0.792473D-18    0.391081D+00
   0   239    0.578242D-22    0.639973D-12    0.156333D-18    0.391081D+00
   0   240    0.113016D-22    0.253521D-12    0.299732D-19    0.391081D+00
   0   241    0.221002D-23    0.100411D-12    0.550776D-20    0.391081D+00
   0   242    0.439390D-24    0.397624D-13    0.880526D-21    0.391081D+00
   0   243    0.873191D-25    0.157432D-13    0.220889D-21    0.391081D+00
   0   244    0.171569D-25    0.623227D-14    0.480256D-22    0.391081D+00
   0   245    0.336688D-26    0.246682D-14    0.837322D-23    0.391081D+00
   0   246    0.670402D-27    0.976276D-15    0.163399D-23    0.391081D+00
   0   247    0.130236D-27    0.386324D-15    0.214691D-24    0.391081D+00
   0   248    0.254067D-28    0.152855D-15    0.469991D-25    0.391081D+00
   0   249    0.487658D-29    0.604725D-16    0.132435D-25    0.391081D+00
   0   250    0.962931D-30    0.239216D-16    0.230792D-26    0.391081D+00
   0   251    0.189416D-30    0.946194D-17    0.381596D-27    0.391081D+00
   0   252    0.378383D-31    0.374223D-17    0.702843D-28    0.391081D+00
   0   253    0.743594D-32    0.147994D-17    0.146615D-28    0.391081D+00
   0   254    0.146827D-32    0.585228D-18    0.292696D-29    0.391081D+00
   0   255    0.288796D-33    0.231408D-18    0.794741D-30    0.391081D+00
   0   256    0.567727D-34    0.914970D-19    0.144966D-30    0.391081D+00
   0   257    0.110462D-34    0.361757D-19    0.196117D-31    0.391081D+00
   0   258    0.215260D-35    0.143025D-19    0.477707D-32    0.391081D+00
   0   259    0.422188D-36    0.565459D-20    0.101847D-32    0.391081D+00
   0   260    0.812960D-37    0.223556D-20    0.166811D-33    0.391081D+00
   0   261    0.158472D-37    0.883846D-21    0.263341D-34    0.391081D+00
   0   262    0.308631D-38    0.349443D-21    0.822167D-35    0.391081D+00
   0   263    0.597965D-39    0.138163D-21    0.119464D-35    0.391081D+00
   0   264    0.118882D-39    0.546302D-22    0.297436D-36    0.391081D+00
   0   265    0.230467D-40    0.216025D-22    0.503262D-37    0.391081D+00
   0   266    0.442868D-41    0.854303D-23    0.804762D-38    0.391081D+00
   0   267    0.873180D-42    0.337882D-23    0.210317D-38    0.391081D+00
   0   268    0.169905D-42    0.133650D-23    0.398715D-39    0.391081D+00
   0   269    0.342567D-43    0.528726D-24    0.727609D-40    0.391081D+00
   0   270    0.666124D-44    0.209198D-24    0.182555D-40    0.391081D+00
   0   271    0.131384D-44    0.827857D-25    0.335876D-41    0.391081D+00
   0   272    0.250953D-45    0.327665D-25    0.739032D-42    0.391081D+00
   0   273    0.492645D-46    0.129714D-25    0.919950D-43    0.391081D+00
   0   274    0.971873D-47    0.513610D-26    0.272703D-43    0.391081D+00
   0   275    0.187558D-47    0.203410D-26    0.506499D-44    0.391081D+00
   0   276    0.365251D-48    0.805767D-27    0.656951D-45    0.391081D+00
   0   277    0.715477D-49    0.319263D-27    0.124898D-45    0.391081D+00
   0   278    0.141671D-49    0.126530D-27    0.286688D-46    0.391081D+00
   0   279    0.277404D-50    0.501586D-28    0.720249D-47    0.391081D+00
   0   280    0.539132D-51    0.198889D-28    0.103706D-47    0.391081D+00
   0   281    0.104418D-51    0.788839D-29    0.174757D-48    0.391081D+00
   0   282    0.205393D-52    0.312955D-29    0.477271D-49    0.391081D+00
   0   283    0.403325D-53    0.124192D-29    0.879382D-50    0.391081D+00
   0   284    0.785521D-54    0.492970D-30    0.195872D-50    0.391081D+00
   0   285    0.151049D-54    0.195735D-30    0.444350D-51    0.391081D+00
   0   286    0.288723D-55    0.777379D-31    0.520149D-52    0.391081D+00
   0   287    0.567838D-56    0.308828D-31    0.140531D-52    0.391081D+00
   0   288    0.111086D-56    0.122721D-31    0.198786D-53    0.391081D+00
   0   289    0.219724D-57    0.487795D-32    0.588462D-54    0.391081D+00
   0   290    0.432623D-58    0.193942D-32    0.846394D-55    0.391081D+00
   0   291    0.836485D-59    0.771299D-33    0.236985D-55    0.391081D+00
   0   292    0.166412D-59    0.306822D-33    0.353435D-56    0.391081D+00
   0   293    0.322970D-60    0.122085D-33    0.947769D-57    0.391081D+00
   0   294    0.625775D-61    0.485902D-34    0.126798D-57    0.391081D+00
   0   295    0.123046D-61    0.193439D-34    0.246786D-58    0.391081D+00
   0   296    0.238249D-62    0.770272D-35    0.587290D-59    0.391081D+00
   0   297    0.462785D-63    0.306796D-35    0.109044D-59    0.391081D+00
   0   298    0.883308D-64    0.122224D-35    0.250948D-60    0.391081D+00
   0   299    0.172603D-64    0.487042D-36    0.440561D-61    0.391081D+00
   0   300    0.331601D-65    0.194121D-36    0.574362D-62    0.391081D+00
   0   301    0.655010D-66    0.773883D-37    0.130099D-62    0.391081D+00
   0   302    0.127413D-66    0.308583D-37    0.302743D-63    0.391081D+00
   0   303    0.248462D-67    0.123072D-37    0.465633D-64    0.391081D+00
   0   304    0.481695D-68    0.490948D-38    0.984627D-65    0.391081D+00
   0   305    0.932722D-69    0.195884D-38    0.179375D-65    0.391081D+00
   0   306    0.181134D-69    0.781712D-39    0.338562D-66    0.391081D+00
   0   307    0.355601D-70    0.312016D-39    0.591268D-67    0.391081D+00
   0   308    0.681355D-71    0.124562D-39    0.189987D-67    0.391081D+00
   0   309    0.131756D-71    0.497362D-40    0.330029D-68    0.391081D+00
   0   310    0.261506D-72    0.198625D-40    0.497490D-69    0.391081D+00
   0   311    0.509620D-73    0.793355D-41    0.145779D-69    0.391081D+00
   0   312    0.983249D-74    0.316936D-41    0.176667D-70    0.391081D+00
   0   313    0.192765D-74    0.126632D-41    0.299833D-71    0.391081D+00
   0   314    0.378580D-75    0.506031D-42    0.100781D-71    0.391081D+00
   0   315    0.727022D-76    0.202244D-42    0.178308D-72    0.391081D+00
   0   316    0.140456D-76    0.808411D-43    0.398005D-73    0.391081D+00
   0   317    0.273273D-77    0.323181D-43    0.616737D-74    0.391081D+00
   0   318    0.524176D-78    0.129215D-43    0.984380D-75    0.391081D+00
   0   319    0.102622D-78    0.516693D-44    0.169066D-75    0.391081D+00
   0   320    0.201348D-79    0.206633D-44    0.375965D-76    0.391081D+00
   0   321    0.397329D-80    0.826443D-45    0.106143D-76    0.391081D+00
   0   322    0.781564D-81    0.330574D-45    0.121072D-77    0.391081D+00
   0   323    0.152351D-81    0.132240D-45    0.364899D-78    0.391081D+00
   0   324    0.299386D-82    0.529047D-46    0.726402D-79    0.391081D+00
   0   325    0.589868D-83    0.211670D-46    0.127372D-79    0.391081D+00
   0   326    0.113059D-83    0.846943D-47    0.197733D-80    0.391081D+00
   0   327    0.221282D-84    0.338904D-47    0.621378D-81    0.391081D+00
   0   328    0.425924D-85    0.135620D-47    0.106077D-81    0.391081D+00
   0   329    0.838612D-86    0.542737D-48    0.226053D-82    0.391081D+00
   0   330    0.162382D-86    0.217207D-48    0.367078D-83    0.391081D+00
   0   331    0.314057D-87    0.869306D-49    0.846916D-84    0.391081D+00
   0   332    0.611038D-88    0.347922D-49    0.116972D-84    0.391081D+00
   0   333    0.119357D-88    0.139251D-49    0.277441D-85    0.391081D+00
   0   334    0.233595D-89    0.557342D-50    0.432758D-86    0.391081D+00
   0   335    0.453584D-90    0.223072D-50    0.130196D-86    0.391081D+00
   0   336    0.881397D-91    0.892823D-51    0.157262D-87    0.391081D+00
   0   337    0.171849D-91    0.357339D-51    0.293812D-88    0.391081D+00
   0   338    0.336694D-92    0.143017D-51    0.920217D-89    0.391081D+00
   0   339    0.651819D-93    0.572376D-52    0.161325D-89    0.391081D+00
   0   340    0.126618D-93    0.229066D-52    0.312773D-90    0.391081D+00
   0   341    0.247250D-94    0.916685D-53    0.700591D-91    0.391081D+00
   0   342    0.485116D-95    0.366824D-53    0.112828D-91    0.391081D+00
   0   343    0.930650D-96    0.146781D-53    0.216261D-92    0.391081D+00
   0   344    0.180579D-96    0.587294D-54    0.331531D-93    0.391081D+00
   0   345    0.353633D-97    0.234968D-54    0.983623D-94    0.391081D+00
   0   346    0.681326D-98    0.939998D-55    0.133635D-94    0.391081D+00
   0   347    0.132056D-98    0.376017D-55    0.296480D-95    0.391081D+00
   0   348    0.248096D-99    0.150400D-55    0.618580D-96    0.391081D+00
   0   349    0.490115-100    0.601509D-56    0.138171D-96    0.391081D+00
   0   350    0.947864-101    0.240542D-56    0.163462D-97    0.391081D+00
   0   351    0.184849-101    0.961811D-57    0.459878D-98    0.391081D+00
   0   352    0.363867-102    0.384535D-57    0.669593D-99    0.391081D+00
   0   353    0.690647-103    0.153718D-57    0.135152D-99    0.391081D+00
   0   354    0.135981-103    0.614407D-58    0.337259-100    0.391081D+00
   0   355    0.266452-104    0.245542D-58    0.721712-101    0.391081D+00
   0   356    0.517554-105    0.981138D-59    0.109887-101    0.391081D+00
   0   357    0.100140-105    0.391983D-59    0.221374-102    0.391081D+00
   0   358    0.191367-106    0.156579D-59    0.366048-103    0.391081D+00
   0   359    0.369625-107    0.625357D-60    0.816502-104    0.391081D+00
   0   360    0.713835-108    0.249715D-60    0.141049-104    0.391081D+00
   0   361    0.139041-108    0.996972D-61    0.376165-105    0.391081D+00
   0   362    0.274522-109    0.397959D-61    0.718560-106    0.391081D+00
   0   363    0.532314-110    0.158821D-61    0.987761-107    0.391081D+00
   0   364    0.104013-110    0.633711D-62    0.167161-107    0.391081D+00
   0   365    0.200806-111    0.252803D-62    0.538342-108    0.391081D+00
   0   366    0.394458-112    0.100827D-62    0.923771-109    0.391081D+00
   0   367    0.776541-113    0.402046D-63    0.215980-109    0.391081D+00
   0   368    0.150199-113    0.160277D-63    0.260367-110    0.391081D+00
   0   369    0.291422-114    0.638797D-64    0.790566-111    0.391081D+00
   0   370    0.564163-115    0.254534D-64    0.100323-111    0.391081D+00
   0   371    0.110761-115    0.101395D-64    0.284786-112    0.391081D+00
   0   372    0.216663-116    0.403805D-65    0.422049-113    0.391081D+00
   0   373    0.410636-117    0.160770D-65    0.113335-113    0.391081D+00
   0   374    0.801570-118    0.639907D-66    0.194752-114    0.391081D+00
   0   375    0.158858-118    0.254624D-66    0.427972-115    0.391081D+00
   0   376    0.312291-119    0.101286D-66    0.859070-116    0.391081D+00
   0   377    0.604674-120    0.402774D-67    0.176528-116    0.391081D+00
   0   378    0.116758-120    0.160115D-67    0.264204-117    0.391081D+00
   0   379    0.230170-121    0.636290D-68    0.396271-118    0.391081D+00
   0   380    0.437722-122    0.252771D-68    0.131659-118    0.391081D+00
   0   381    0.845081-123    0.100379D-68    0.209230-119    0.391081D+00
   0   382    0.166134-123    0.398470D-69    0.445893-120    0.391081D+00
   0   383    0.318973-124    0.158118D-69    0.738011-121    0.391081D+00
   0   384    0.619041-125    0.627180D-70    0.159162-121    0.391081D+00
   0   385    0.120759-125    0.248671D-70    0.272294-122    0.391081D+00
   0   386    0.237313-126    0.985536D-71    0.518687-123    0.391081D+00
   0   387    0.456098-127    0.390417D-71    0.115494-123    0.391081D+00
   0   388    0.885413-128    0.154592D-71    0.250714-124    0.391081D+00
   0   389    0.172953-128    0.611846D-72    0.442842-125    0.391081D+00
   0   390    0.340699-129    0.242039D-72    0.754133-126    0.391081D+00
   0   391    0.670307-130    0.957003D-73    0.179989-126    0.391081D+00
   0   392    0.127804-130    0.378195D-73    0.373217-127    0.391081D+00
   0   393    0.247982-131    0.149378D-73    0.722505-128    0.391081D+00
   0   394    0.473059-132    0.589680D-74    0.121864-128    0.391081D+00
   0   395    0.919396-133    0.232634D-74    0.226408-129    0.391081D+00
   0   396    0.178897-133    0.916852D-75    0.402333-130    0.391081D+00
   0   397    0.351490-134    0.360178D-75    0.855297-131    0.391081D+00