variables =  "IG"  "JG"  "PHI"  "Temp."  "Latent_heat"  "mm"
ZONE  I=  401  J=  101
   0     0    0.100000D+01    0.992429D+00    0.000000D+00    0.200624D+00
   0     1    0.100000D+01    0.992429D+00    0.000000D+00    0.200624D+00
   0     2    0.100000D+01    0.992746D+00    0.000000D+00    0.200181D+00
   0     3    0.100000D+01    0.993380D+00    0.000000D+00    0.199293D+00
   0     4    0.100000D+01    0.994326D+00    0.000000D+00    0.197957D+00
   0     5    0.100000D+01    0.995578D+00    0.000000D+00    0.196169D+00
   0     6    0.100000D+01    0.997130D+00    0.000000D+00    0.193922D+00
   0     7    0.100000D+01    0.998971D+00    0.000000D+00    0.191209D+00
   0     8    0.100000D+01    0.100109D+01    0.000000D+00    0.188023D+00
   0     9    0.100000D+01    0.100348D+01    0.000000D+00    0.184355D+00
   0    10    0.100000D+01    0.100612D+01    0.000000D+00    0.180195D+00
   0    11    0.100000D+01    0.100900D+01    0.000000D+00    0.175536D+00
   0    12    0.100000D+01    0.101211D+01    0.000000D+00    0.170371D+00
   0    13    0.100000D+01    0.101541D+01    0.000000D+00    0.164693D+00
   0    14    0.100000D+01    0.101890D+01    0.000000D+00    0.158499D+00
   0    15    0.100000D+01    0.102256D+01    0.000000D+00    0.151791D+00
   0    16    0.100000D+01    0.102637D+01    0.000000D+00    0.144572D+00
   0    17    0.100000D+01    0.103030D+01    0.000000D+00    0.136855D+00
   0    18    0.100000D+01    0.103434D+01    0.000000D+00    0.128657D+00
   0    19    0.100000D+01    0.103845D+01    0.000000D+00    0.120003D+00
   0    20    0.100000D+01    0.104264D+01    0.000000D+00    0.110928D+00
   0    21    0.100000D+01    0.104686D+01    0.000000D+00    0.101475D+00
   0    22    0.100000D+01    0.105109D+01    0.145853D-09    0.916982D-01
   0    23    0.100000D+01    0.105533D+01   -0.218779D-09    0.816583D-01
   0    24    0.100000D+01    0.105955D+01    0.152270D-07    0.714258D-01
   0    25    0.100000D+01    0.106372D+01    0.122064D-06    0.610771D-01
   0    26    0.100000D+01    0.106782D+01   -0.206965D-06    0.506927D-01
   0    27    0.100000D+01    0.107185D+01   -0.654485D-05    0.403547D-01
   0    28    0.100000D+01    0.107579D+01    0.690033D-04    0.301433D-01
   0    29    0.999999D+00    0.107961D+01    0.158403D-03    0.201349D-01
   0    30    0.999993D+00    0.108330D+01    0.166688D-02    0.104011D-01
   0    31    0.999944D+00    0.108685D+01   -0.167823D-01    0.100843D-02
   0    32    0.999561D+00    0.109025D+01    0.262063D+00   -0.797056D-02
   0    33    0.996610D+00    0.109345D+01   -0.189073D+01   -0.164599D-01
   0    34    0.974673D+00    0.109660D+01    0.796486D+01   -0.242570D-01
   0    35    0.821410D+00    0.110095D+01    0.135835D+02   -0.374803D-01
   0    36    0.154769D+00    0.110055D+01   -0.649962D+02   -0.363707D-01
   0    37    0.215334D-01    0.110245D+01    0.105227D+02   -0.394768D-01
   0    38    0.292271D-02    0.110358D+01    0.166917D+01   -0.429169D-01
   0    39    0.458243D-03    0.110407D+01   -0.210283D+00   -0.440890D-01
   0    40    0.118301D-03    0.110413D+01   -0.630325D-01   -0.442596D-01
   0    41    0.687817D-04    0.110383D+01   -0.997116D-02   -0.434738D-01
   0    42    0.618379D-04    0.110321D+01    0.753538D-02   -0.418704D-01
   0    43    0.619072D-04    0.110227D+01   -0.382493D-01   -0.394683D-01
   0    44    0.639199D-04    0.110105D+01   -0.255025D-01   -0.363029D-01
   0    45    0.676213D-04    0.109952D+01    0.307118D-01   -0.323069D-01
   0    46    0.742944D-04    0.109772D+01    0.112627D-01   -0.276146D-01
   0    47    0.861082D-04    0.109579D+01    0.624695D-02   -0.225654D-01
   0    48    0.111546D-03    0.109398D+01    0.575551D-01   -0.178045D-01
   0    49    0.173719D-03    0.109268D+01    0.263610D-01   -0.143733D-01
   0    50    0.285965D-03    0.109244D+01   -0.121994D+00   -0.137749D-01
   0    51    0.418831D-03    0.109363D+01    0.663755D-01   -0.169246D-01
   0    52    0.501470D-03    0.109574D+01    0.920335D-01   -0.224887D-01
   0    53    0.504651D-03    0.109747D+01    0.228153D+00   -0.269663D-01
   0    54    0.483220D-03    0.109829D+01   -0.258058D+00   -0.291281D-01
   0    55    0.449969D-03    0.109772D+01   -0.182488D+00   -0.276181D-01
   0    56    0.408480D-03    0.109553D+01    0.276539D+00   -0.218852D-01
   0    57    0.356245D-03    0.109209D+01    0.653197D-01   -0.128740D-01
   0    58    0.307912D-03    0.108817D+01    0.652249D-01   -0.250158D-02
   0    59    0.279112D-03    0.108460D+01   -0.186930D+00    0.692981D-02
   0    60    0.270154D-03    0.108203D+01   -0.866853D-01    0.137176D-01
   0    61    0.268652D-03    0.108039D+01   -0.955844D-01    0.180490D-01
   0    62    0.284937D-03    0.107976D+01    0.143744D+00    0.197013D-01
   0    63    0.296562D-03    0.107998D+01    0.139536D+00    0.191202D-01
   0    64    0.313403D-03    0.108093D+01    0.320803D-02    0.165875D-01
   0    65    0.326870D-03    0.108235D+01    0.374833D-01    0.128502D-01
   0    66    0.336120D-03    0.108392D+01   -0.179959D+00    0.872735D-02
   0    67    0.339678D-03    0.108552D+01    0.454316D-01    0.450058D-02
   0    68    0.348733D-03    0.108698D+01   -0.129215D+00    0.652192D-03
   0    69    0.342098D-03    0.108815D+01    0.140659D-01   -0.245816D-02
   0    70    0.334625D-03    0.108912D+01   -0.188094D+00   -0.503853D-02
   0    71    0.327691D-03    0.109008D+01    0.142579D+00   -0.754736D-02
   0    72    0.325843D-03    0.109102D+01    0.194059D+00   -0.100493D-01
   0    73    0.329427D-03    0.109215D+01   -0.117051D+00   -0.130401D-01
   0    74    0.336951D-03    0.109340D+01    0.230606D+00   -0.163197D-01
   0    75    0.343588D-03    0.109465D+01   -0.191746D+00   -0.196062D-01
   0    76    0.347437D-03    0.109593D+01    0.682223D-01   -0.229710D-01
   0    77    0.345624D-03    0.109706D+01    0.154764D+00   -0.259216D-01
   0    78    0.341734D-03    0.109809D+01   -0.167250D+00   -0.286167D-01
   0    79    0.348104D-03    0.109913D+01   -0.723678D-01   -0.313283D-01
   0    80    0.345602D-03    0.110012D+01   -0.119830D+00   -0.339152D-01
   0    81    0.346643D-03    0.110103D+01   -0.191968D+00   -0.362724D-01
   0    82    0.342529D-03    0.110192D+01    0.198384D+00   -0.385781D-01
   0    83    0.342137D-03    0.110264D+01    0.178862D+00   -0.404335D-01
   0    84    0.345465D-03    0.110333D+01    0.836237D-01   -0.422111D-01
   0    85    0.352772D-03    0.110399D+01   -0.179267D-01   -0.438771D-01
   0    86    0.353668D-03    0.110453D+01    0.129945D+00   -0.452972D-01
   0    87    0.354932D-03    0.110505D+01    0.216077D-01   -0.466456D-01
   0    88    0.353994D-03    0.110548D+01   -0.155360D+00   -0.476951D-01
   0    89    0.358809D-03    0.110586D+01    0.719304D-01   -0.487303D-01
   0    90    0.356563D-03    0.110629D+01    0.183929D+00   -0.498059D-01
   0    91    0.361524D-03    0.110669D+01   -0.948058D-01   -0.508103D-01
   0    92    0.359240D-03    0.110715D+01   -0.355575D-01   -0.519934D-01
   0    93    0.365835D-03    0.110761D+01   -0.512679D-01   -0.531604D-01
   0    94    0.364512D-03    0.110798D+01    0.224404D-01   -0.541211D-01
   0    95    0.363616D-03    0.110826D+01   -0.488691D-01   -0.548039D-01
   0    96    0.373199D-03    0.110852D+01    0.725039D-01   -0.554610D-01
   0    97    0.379112D-03    0.110868D+01    0.302481D-01   -0.558574D-01
   0    98    0.375999D-03    0.110878D+01    0.120140D+00   -0.561333D-01
   0    99    0.381326D-03    0.110881D+01    0.948228D-01   -0.562085D-01
   0   100    0.377444D-03    0.110877D+01   -0.210674D+00   -0.561157D-01
   0   101    0.381906D-03    0.110885D+01   -0.164436D+00   -0.562675D-01
   0   102    0.383915D-03    0.110888D+01   -0.355698D-01   -0.563913D-01
   0   103    0.382802D-03    0.110886D+01   -0.451665D-01   -0.562862D-01
   0   104    0.384089D-03    0.110887D+01   -0.130893D+00   -0.563265D-01
   0   105    0.392979D-03    0.110888D+01   -0.944254D-01   -0.563674D-01
   0   106    0.395009D-03    0.110883D+01   -0.131698D+00   -0.562121D-01
   0   107    0.399028D-03    0.110890D+01    0.269510D+00   -0.563980D-01
   0   108    0.403748D-03    0.110879D+01   -0.256392D+00   -0.561460D-01
   0   109    0.409889D-03    0.110875D+01   -0.286481D+00   -0.560226D-01
   0   110    0.409920D-03    0.110863D+01   -0.440890D-01   -0.557656D-01
   0   111    0.416166D-03    0.110846D+01   -0.276471D+00   -0.552589D-01
   0   112    0.416865D-03    0.110828D+01   -0.843647D-02   -0.548528D-01
   0   113    0.416815D-03    0.110804D+01   -0.456036D-01   -0.542500D-01
   0   114    0.424229D-03    0.110788D+01   -0.313190D-01   -0.538399D-01
   0   115    0.428655D-03    0.110766D+01    0.152986D+00   -0.532935D-01
   0   116    0.430178D-03    0.110742D+01    0.326750D+00   -0.526701D-01
   0   117    0.434177D-03    0.110720D+01   -0.153490D+00   -0.521182D-01
   0   118    0.447528D-03    0.110693D+01    0.155079D+00   -0.514285D-01
   0   119    0.449828D-03    0.110663D+01    0.204572D+00   -0.506978D-01
   0   120    0.451761D-03    0.110631D+01   -0.211452D+00   -0.498434D-01
   0   121    0.457697D-03    0.110589D+01   -0.199408D+00   -0.487816D-01
   0   122    0.464324D-03    0.110552D+01   -0.742942D-01   -0.477970D-01
   0   123    0.465012D-03    0.110505D+01   -0.307777D+00   -0.465755D-01
   0   124    0.474006D-03    0.110457D+01   -0.256611D+00   -0.454041D-01
   0   125    0.479285D-03    0.110424D+01    0.769824D-01   -0.445478D-01
   0   126    0.482779D-03    0.110375D+01    0.168868D+00   -0.432929D-01
   0   127    0.494105D-03    0.110343D+01   -0.712422D-01   -0.424299D-01
   0   128    0.497693D-03    0.110294D+01    0.183829D+00   -0.411918D-01
   0   129    0.504198D-03    0.110229D+01   -0.119727D+00   -0.395150D-01
   0   130    0.506934D-03    0.110181D+01    0.259516D+00   -0.382507D-01
   0   131    0.514718D-03    0.110131D+01   -0.205941D+00   -0.369339D-01
   0   132    0.526894D-03    0.110079D+01    0.231288D+00   -0.356179D-01
   0   133    0.531360D-03    0.110026D+01    0.387104D+00   -0.342733D-01
   0   134    0.545512D-03    0.109970D+01   -0.296099D+00   -0.328019D-01
   0   135    0.552104D-03    0.109918D+01   -0.276928D+00   -0.314285D-01
   0   136    0.561207D-03    0.109854D+01    0.329816D+00   -0.297376D-01
   0   137    0.570001D-03    0.109801D+01    0.338912D+00   -0.283505D-01
   0   138    0.571349D-03    0.109733D+01   -0.313098D+00   -0.265962D-01
   0   139    0.580501D-03    0.109671D+01   -0.395042D+00   -0.249306D-01
   0   140    0.587501D-03    0.109619D+01   -0.267232D+00   -0.236415D-01
   0   141    0.603879D-03    0.109555D+01   -0.203709D+00   -0.219574D-01
   0   142    0.610310D-03    0.109493D+01    0.546565D-01   -0.202401D-01
   0   143    0.620769D-03    0.109428D+01    0.137131D-01   -0.185594D-01
   0   144    0.637298D-03    0.109356D+01   -0.463663D+00   -0.167254D-01
   0   145    0.646392D-03    0.109299D+01   -0.160029D+00   -0.151365D-01
   0   146    0.651154D-03    0.109220D+01    0.407414D+00   -0.131196D-01
   0   147    0.688266D-03    0.109154D+01   -0.122761D+00   -0.113718D-01
   0   148    0.699101D-03    0.109076D+01   -0.230748D+00   -0.925337D-02
   0   149    0.707529D-03    0.108991D+01   -0.570369D+00   -0.700528D-02
   0   150    0.712318D-03    0.108906D+01    0.348528D+00   -0.479475D-02
   0   151    0.715382D-03    0.108827D+01    0.239262D+00   -0.272089D-02
   0   152    0.733735D-03    0.108744D+01    0.352449D+00   -0.520662D-03
   0   153    0.760353D-03    0.108678D+01   -0.203702D+00    0.120617D-02
   0   154    0.771892D-03    0.108624D+01   -0.327648D+00    0.262523D-02
   0   155    0.786087D-03    0.108557D+01    0.102465D+00    0.439210D-02
   0   156    0.816636D-03    0.108485D+01   -0.611069D+00    0.626461D-02
   0   157    0.810991D-03    0.108423D+01    0.322354D+00    0.800553D-02
   0   158    0.831044D-03    0.108345D+01   -0.337333D+00    0.999499D-02
   0   159    0.852151D-03    0.108262D+01   -0.554262D+00    0.122199D-01
   0   160    0.875845D-03    0.108177D+01   -0.215508D+00    0.144503D-01
   0   161    0.888170D-03    0.108076D+01   -0.269421D+00    0.171097D-01
   0   162    0.920231D-03    0.107977D+01    0.639165D-01    0.197433D-01
   0   163    0.973641D-03    0.107874D+01   -0.113651D+00    0.223943D-01
   0   164    0.973481D-03    0.107783D+01   -0.429388D+00    0.247670D-01
   0   165    0.100500D-02    0.107679D+01   -0.353749D+00    0.275822D-01
   0   166    0.103114D-02    0.107571D+01    0.710336D+00    0.303938D-01
   0   167    0.108605D-02    0.107449D+01   -0.625572D+00    0.335660D-01
   0   168    0.110836D-02    0.107327D+01   -0.549024D-01    0.366768D-01
   0   169    0.114246D-02    0.107202D+01   -0.320696D+00    0.399979D-01
   0   170    0.119725D-02    0.107068D+01   -0.118377D+00    0.433432D-01
   0   171    0.123161D-02    0.106984D+01    0.633144D+00    0.456303D-01
   0   172    0.129576D-02    0.106903D+01   -0.880707D+00    0.475663D-01
   0   173    0.130850D-02    0.106825D+01   -0.490272D+00    0.496061D-01
   0   174    0.136714D-02    0.106773D+01   -0.912581D+00    0.509184D-01
   0   175    0.138039D-02    0.106724D+01    0.442300D+00    0.521525D-01
   0   176    0.142227D-02    0.106660D+01    0.103522D-01    0.538072D-01
   0   177    0.150687D-02    0.106581D+01   -0.114120D+01    0.557657D-01
   0   178    0.152403D-02    0.106529D+01   -0.101974D+01    0.571976D-01
   0   179    0.161085D-02    0.106451D+01   -0.654864D+00    0.591916D-01
   0   180    0.169514D-02    0.106373D+01    0.189222D+00    0.610518D-01
   0   181    0.175430D-02    0.106328D+01    0.857182D-02    0.621067D-01
   0   182    0.180182D-02    0.106318D+01    0.759472D+00    0.624255D-01
   0   183    0.191017D-02    0.106335D+01   -0.100540D+01    0.620514D-01
   0   184    0.200092D-02    0.106367D+01    0.618642D+00    0.612024D-01
   0   185    0.202187D-02    0.106422D+01    0.649987D+00    0.598423D-01
   0   186    0.203508D-02    0.106492D+01    0.753062D+00    0.581390D-01
   0   187    0.210952D-02    0.106559D+01   -0.108938D+01    0.562430D-01
   0   188    0.218665D-02    0.106679D+01   -0.130953D+01    0.534265D-01
   0   189    0.230085D-02    0.106829D+01   -0.654630D+00    0.494609D-01
   0   190    0.239397D-02    0.106960D+01   -0.354428D+00    0.461012D-01
   0   191    0.248178D-02    0.107089D+01   -0.129805D+01    0.427088D-01
   0   192    0.248367D-02    0.107237D+01    0.759357D+00    0.389126D-01
   0   193    0.251252D-02    0.107383D+01    0.852713D+00    0.350171D-01
   0   194    0.246831D-02    0.107519D+01   -0.160656D+01    0.317707D-01
   0   195    0.247929D-02    0.107704D+01   -0.574256D-01    0.266749D-01
   0   196    0.253511D-02    0.107851D+01    0.131095D+01    0.229955D-01
   0   197    0.257417D-02    0.108031D+01   -0.116277D+01    0.181593D-01
   0   198    0.261563D-02    0.108240D+01   -0.239212D-01    0.126314D-01
   0   199    0.269712D-02    0.108482D+01   -0.146450D+01    0.627537D-02
   0   200    0.271240D-02    0.108709D+01    0.934362D+00    0.307395D-03
   0   201    0.270096D-02    0.108936D+01    0.120319D+01   -0.555984D-02
   0   202    0.273594D-02    0.109078D+01    0.144536D+01   -0.956054D-02
   0   203    0.270596D-02    0.109206D+01   -0.836885D+00   -0.127307D-01
   0   204    0.273092D-02    0.109382D+01   -0.516901D+00   -0.176482D-01
   0   205    0.274954D-02    0.109471D+01    0.122950D+01   -0.195800D-01
   0   206    0.277127D-02    0.109574D+01    0.450051D+00   -0.224173D-01
   0   207    0.282360D-02    0.109706D+01   -0.390595D+00   -0.258387D-01
   0   208    0.284992D-02    0.109831D+01   -0.323222D+00   -0.291114D-01
   0   209    0.279631D-02    0.109997D+01    0.230562D+01   -0.333047D-01
   0   210    0.278936D-02    0.110075D+01    0.245377D+00   -0.356367D-01
   0   211    0.289609D-02    0.110189D+01   -0.221863D+01   -0.386759D-01
   0   212    0.293417D-02    0.110321D+01   -0.117763D+01   -0.418598D-01
   0   213    0.297558D-02    0.110435D+01   -0.840908D+00   -0.449749D-01
   0   214    0.300436D-02    0.110526D+01   -0.194590D+01   -0.471185D-01
   0   215    0.300212D-02    0.110579D+01   -0.343116D+00   -0.487316D-01
   0   216    0.301810D-02    0.110680D+01   -0.811148D+00   -0.509643D-01
   0   217    0.305889D-02    0.110729D+01   -0.469896D+00   -0.523367D-01
   0   218    0.303070D-02    0.110764D+01    0.200729D+01   -0.530893D-01
   0   219    0.307340D-02    0.110793D+01   -0.106083D+01   -0.537425D-01
   0   220    0.312672D-02    0.110828D+01   -0.104254D+01   -0.546673D-01
   0   221    0.313425D-02    0.110842D+01    0.347877D+00   -0.552048D-01
   0   222    0.319431D-02    0.110890D+01   -0.196254D+01   -0.563121D-01
   0   223    0.323151D-02    0.110884D+01    0.845420D+00   -0.561905D-01
   0   224    0.320100D-02    0.110875D+01    0.211057D+01   -0.558249D-01
   0   225    0.326478D-02    0.110900D+01    0.603768D+00   -0.568835D-01
   0   226    0.330342D-02    0.110885D+01    0.198722D+01   -0.561888D-01
   0   227    0.329473D-02    0.110885D+01   -0.132577D+01   -0.564644D-01
   0   228    0.337026D-02    0.110848D+01   -0.110897D+01   -0.551679D-01
   0   229    0.350845D-02    0.110855D+01    0.109272D+01   -0.555047D-01
   0   230    0.346775D-02    0.110818D+01    0.790876D+00   -0.545702D-01
   0   231    0.353528D-02    0.110765D+01   -0.798372D+00   -0.534181D-01
   0   232    0.361506D-02    0.110719D+01    0.105373D+01   -0.519949D-01
   0   233    0.365440D-02    0.110695D+01   -0.186163D+01   -0.514225D-01
   0   234    0.370925D-02    0.110638D+01    0.216212D+01   -0.501421D-01
   0   235    0.379607D-02    0.110583D+01    0.263506D+00   -0.489225D-01
   0   236    0.385556D-02    0.110528D+01   -0.102874D+01   -0.474598D-01
   0   237    0.389288D-02    0.110448D+01   -0.674369D+00   -0.454210D-01
   0   238    0.398548D-02    0.110392D+01   -0.190223D+01   -0.434597D-01
   0   239    0.406123D-02    0.110288D+01   -0.166830D+01   -0.409011D-01
   0   240    0.409604D-02    0.110264D+01   -0.165826D+01   -0.405999D-01
   0   241    0.418575D-02    0.110183D+01   -0.722902D+00   -0.385167D-01
   0   242    0.424209D-02    0.110148D+01    0.102567D+01   -0.374661D-01
   0   243    0.431870D-02    0.110072D+01    0.313341D+00   -0.351510D-01
   0   244    0.437890D-02    0.109968D+01   -0.153543D+01   -0.327965D-01
   0   245    0.451487D-02    0.109862D+01   -0.737634D+00   -0.297356D-01
   0   246    0.450366D-02    0.109783D+01    0.293413D+01   -0.278704D-01
   0   247    0.473830D-02    0.109718D+01    0.263898D+01   -0.259080D-01
   0   248    0.479848D-02    0.109619D+01   -0.399462D+00   -0.234291D-01
   0   249    0.492714D-02    0.109487D+01    0.143365D+01   -0.202519D-01
   0   250    0.508668D-02    0.109389D+01   -0.145273D+01   -0.174608D-01
   0   251    0.513194D-02    0.109239D+01    0.139333D+01   -0.138576D-01
   0   252    0.527159D-02    0.109122D+01    0.725171D+00   -0.107745D-01
   0   253    0.552890D-02    0.109011D+01   -0.249826D+01   -0.742752D-02
   0   254    0.576151D-02    0.108794D+01    0.115691D+01   -0.155738D-02
   0   255    0.588778D-02    0.108617D+01    0.368165D+01    0.310166D-02
   0   256    0.612760D-02    0.108441D+01   -0.288268D+01    0.767189D-02
   0   257    0.643553D-02    0.108241D+01   -0.478496D+01    0.126643D-01
   0   258    0.664310D-02    0.108097D+01    0.190163D+01    0.164748D-01
   0   259    0.713687D-02    0.107913D+01   -0.531653D+01    0.209531D-01
   0   260    0.733691D-02    0.107768D+01   -0.457088D+01    0.252628D-01
   0   261    0.754367D-02    0.107633D+01   -0.414809D-01    0.284078D-01
   0   262    0.781309D-02    0.107569D+01    0.290665D+01    0.301666D-01
   0   263    0.811472D-02    0.107469D+01   -0.464338D+01    0.328188D-01
   0   264    0.835938D-02    0.107374D+01   -0.460144D+01    0.357648D-01
   0   265    0.860889D-02    0.107291D+01    0.639541D+00    0.375215D-01
   0   266    0.884506D-02    0.107149D+01   -0.314976D+01    0.414655D-01
   0   267    0.915142D-02    0.106983D+01   -0.292776D+01    0.462731D-01
   0   268    0.958238D-02    0.106809D+01    0.322635D+01    0.498034D-01
   0   269    0.103638D-01    0.106643D+01   -0.150383D+01    0.547084D-01
   0   270    0.111445D-01    0.106497D+01    0.171651D+01    0.573405D-01
   0   271    0.119035D-01    0.106309D+01    0.801609D-01    0.623847D-01
   0   272    0.128805D-01    0.106343D+01   -0.324709D+01    0.620769D-01
   0   273    0.133396D-01    0.106300D+01    0.247638D+01    0.633314D-01
   0   274    0.144391D-01    0.106366D+01   -0.711329D+01    0.609273D-01
   0   275    0.149534D-01    0.106423D+01    0.549044D+01    0.597999D-01
   0   276    0.159578D-01    0.106356D+01    0.479354D+01    0.604195D-01
   0   277    0.159512D-01    0.106422D+01    0.558881D+01    0.602907D-01
   0   278    0.161275D-01    0.106471D+01    0.157357D+01    0.587923D-01
   0   279    0.169015D-01    0.106620D+01    0.740885D+01    0.555107D-01
   0   280    0.173442D-01    0.106699D+01   -0.944229D+01    0.520762D-01
   0   281    0.184302D-01    0.106911D+01   -0.369442D+01    0.473355D-01
   0   282    0.189101D-01    0.107170D+01   -0.778120D+01    0.401066D-01
   0   283    0.193150D-01    0.107349D+01    0.949919D+00    0.360651D-01
   0   284    0.189758D-01    0.107395D+01    0.899134D+01    0.342574D-01
   0   285    0.196594D-01    0.107697D+01   -0.770605D+01    0.262219D-01
   0   286    0.207339D-01    0.108018D+01    0.119867D+00    0.194207D-01
   0   287    0.211751D-01    0.108277D+01    0.666902D+01    0.127822D-01
   0   288    0.217434D-01    0.108602D+01   -0.281926D+01    0.196239D-02
   0   289    0.221254D-01    0.108984D+01   -0.117410D+01   -0.577662D-02
   0   290    0.225540D-01    0.109045D+01    0.255794D+01   -0.891120D-02
   0   291    0.228213D-01    0.109394D+01    0.687222D+01   -0.172670D-01
   0   292    0.230037D-01    0.109605D+01   -0.938793D+01   -0.230549D-01
   0   293    0.235399D-01    0.109879D+01    0.109061D+02   -0.310887D-01
   0   294    0.237497D-01    0.110016D+01   -0.312249D+01   -0.342435D-01
   0   295    0.242155D-01    0.110019D+01    0.118925D+02   -0.356286D-01
   0   296    0.242069D-01    0.110089D+01    0.218656D+01   -0.361462D-01
   0   297    0.247295D-01    0.110254D+01    0.451773D+01   -0.400636D-01
   0   298    0.253973D-01    0.110281D+01    0.513857D+01   -0.414230D-01
   0   299    0.250210D-01    0.110555D+01   -0.560966D+01   -0.495934D-01
   0   300    0.255399D-01    0.110560D+01   -0.140408D+02   -0.471023D-01
   0   301    0.261390D-01    0.110692D+01    0.159676D+02   -0.516388D-01
   0   302    0.265367D-01    0.110658D+01    0.814323D+01   -0.505150D-01
   0   303    0.269005D-01    0.110889D+01    0.178675D+02   -0.563320D-01
   0   304    0.278133D-01    0.110829D+01   -0.913761D+01   -0.531200D-01
   0   305    0.278416D-01    0.110874D+01    0.168553D+02   -0.568420D-01
   0   306    0.285454D-01    0.110948D+01   -0.163756D+02   -0.567407D-01
   0   307    0.287690D-01    0.110999D+01   -0.416407D+01   -0.583384D-01
   0   308    0.292303D-01    0.110880D+01   -0.658654D+01   -0.552897D-01
   0   309    0.302275D-01    0.110793D+01    0.170578D+02   -0.534892D-01
   0   310    0.314015D-01    0.110753D+01    0.610394D+01   -0.536232D-01
   0   311    0.315608D-01    0.110654D+01    0.161935D+01   -0.508600D-01
   0   312    0.329801D-01    0.110574D+01   -0.179742D+02   -0.501140D-01
   0   313    0.337591D-01    0.110571D+01   -0.774103D+01   -0.503882D-01
   0   314    0.343948D-01    0.110519D+01    0.186523D+02   -0.457306D-01
   0   315    0.357054D-01    0.110473D+01   -0.262005D+02   -0.465913D-01
   0   316    0.363799D-01    0.110249D+01    0.216151D+02   -0.392812D-01
   0   317    0.379802D-01    0.109973D+01   -0.190036D+02   -0.315982D-01
   0   318    0.398818D-01    0.109646D+01   -0.250295D+01   -0.234393D-01
   0   319    0.427332D-01    0.109472D+01   -0.118578D+02   -0.189878D-01
   0   320    0.441646D-01    0.109364D+01   -0.630181D+01   -0.173347D-01
   0   321    0.466468D-01    0.108998D+01   -0.307045D+02   -0.568092D-02
   0   322    0.505648D-01    0.108896D+01    0.245798D+02   -0.472948D-02
   0   323    0.546220D-01    0.108245D+01   -0.215039D+02    0.127797D-01
   0   324    0.605549D-01    0.107850D+01   -0.184145D+02    0.216014D-01
   0   325    0.677072D-01    0.107543D+01   -0.653607D+01    0.305918D-01
   0   326    0.753865D-01    0.107569D+01   -0.672982D+01    0.283942D-01
   0   327    0.846047D-01    0.107259D+01    0.201874D+02    0.354047D-01
   0   328    0.951902D-01    0.107421D+01   -0.610831D+02    0.321563D-01
   0   329    0.106264D+00    0.107711D+01   -0.162448D+02    0.295870D-01
   0   330    0.119208D+00    0.107430D+01    0.432499D+02    0.318657D-01
   0   331    0.127678D+00    0.107829D+01    0.277919D+02    0.245295D-01
   0   332    0.139206D+00    0.108141D+01   -0.693662D+02    0.137946D-01
   0   333    0.151794D+00    0.108526D+01   -0.731516D+02    0.102727D-02
   0   334    0.162735D+00    0.108916D+01    0.265004D+02   -0.895318D-02
   0   335    0.174540D+00    0.109547D+01   -0.977337D+02   -0.228775D-01
   0   336    0.188371D+00    0.110078D+01   -0.273275D+01   -0.360106D-01
   0   337    0.203696D+00    0.110660D+01   -0.138565D+03   -0.524290D-01
   0   338    0.222194D+00    0.111387D+01   -0.129961D+03   -0.654521D-01
   0   339    0.242007D+00    0.111167D+01   -0.297925D+02   -0.628930D-01
   0   340    0.273034D+00    0.110278D+01    0.100482D+03   -0.370617D-01
   0   341    0.286222D+00    0.105812D+01   -0.113875D+03    0.738323D-01
   0   342    0.180421D+00    0.901428D+00    0.197346D+03    0.286472D+00
   0   343    0.610876D-01    0.561782D+00    0.892108D+02    0.365925D+00
   0   344    0.163964D-01    0.287768D+00    0.328443D+02    0.382524D+00
   0   345    0.388289D-02    0.133580D+00    0.675183D+01    0.387739D+00
   0   346    0.877786D-03    0.586731D-01    0.193678D+01    0.389719D+00
   0   347    0.196306D-03    0.249842D-01    0.507353D+00    0.390519D+00
   0   348    0.425105D-04    0.104335D-01    0.732626D-01    0.390850D+00
   0   349    0.932615D-05    0.430111D-02    0.154425D-01    0.390986D+00
   0   350    0.194316D-05    0.175688D-02    0.462627D-02    0.391043D+00
   0   351    0.407661D-06    0.713048D-03    0.661345D-03    0.391066D+00
   0   352    0.854550D-07    0.288059D-03    0.202754D-03    0.391075D+00
   0   353    0.174824D-07    0.115974D-03    0.363523D-04    0.391079D+00
   0   354    0.357967D-08    0.465723D-04    0.975789D-05    0.391080D+00
   0   355    0.722396D-09    0.186651D-04    0.119292D-05    0.391081D+00
   0   356    0.144872D-09    0.746871D-05    0.355770D-06    0.391081D+00
   0   357    0.289366D-10    0.298471D-05    0.482821D-07    0.391081D+00
   0   358    0.580341D-11    0.119151D-05    0.148757D-07    0.391081D+00
   0   359    0.115859D-11    0.475226D-06    0.322615D-08    0.391081D+00
   0   360    0.235398D-12    0.189396D-06    0.450818D-09    0.391081D+00
   0   361    0.459894D-13    0.754319D-07    0.101603D-09    0.391081D+00
   0   362    0.922201D-14    0.300257D-07    0.176024D-10    0.391081D+00
   0   363    0.181302D-14    0.119459D-07    0.519562D-11    0.391081D+00
   0   364    0.360854D-15    0.475075D-08    0.624271D-12    0.391081D+00
   0   365    0.706447D-16    0.188866D-08    0.182355D-12    0.391081D+00
   0   366    0.137166D-16    0.750613D-09    0.281028D-13    0.391081D+00
   0   367    0.278661D-17    0.298245D-09    0.579440D-14    0.391081D+00
   0   368    0.552142D-18    0.118480D-09    0.150764D-14    0.391081D+00
   0   369    0.111102D-18    0.470595D-10    0.292931D-15    0.391081D+00
   0   370    0.219289D-19    0.186895D-10    0.553811D-16    0.391081D+00
   0   371    0.431605D-20    0.742179D-11    0.103507D-16    0.391081D+00
   0   372    0.831308D-21    0.294707D-11    0.241538D-17    0.391081D+00
   0   373    0.161974D-21    0.117017D-11    0.349245D-18    0.391081D+00
   0   374    0.325105D-22    0.464617D-12    0.513432D-19    0.391081D+00
   0   375    0.646741D-23    0.184472D-12    0.135551D-19    0.391081D+00
   0   376    0.129420D-23    0.732419D-13    0.345472D-20    0.391081D+00
   0   377    0.250862D-24    0.290793D-13    0.613964D-21    0.391081D+00
   0   378    0.493930D-25    0.115453D-13    0.128506D-21    0.391081D+00
   0   379    0.953651D-26    0.458375D-14    0.225228D-22    0.391081D+00
   0   380    0.188035D-26    0.181984D-14    0.316944D-23    0.391081D+00
   0   381    0.360461D-27    0.722507D-15    0.936953D-24    0.391081D+00
   0   382    0.726160D-28    0.286843D-15    0.195100D-24    0.391081D+00
   0   383    0.143932D-28    0.113877D-15    0.256261D-25    0.391081D+00
   0   384    0.280661D-29    0.452087D-16    0.558658D-26    0.391081D+00
   0   385    0.550147D-30    0.179472D-16    0.952705D-27    0.391081D+00
   0   386    0.105984D-30    0.712452D-17    0.180478D-27    0.391081D+00
   0   387    0.208477D-31    0.282814D-17    0.346764D-28    0.391081D+00
   0   388    0.411195D-32    0.112261D-17    0.794603D-29    0.391081D+00
   0   389    0.807346D-33    0.445591D-18    0.147032D-29    0.391081D+00
   0   390    0.157654D-33    0.176858D-18    0.325950D-30    0.391081D+00
   0   391    0.306424D-34    0.701924D-19    0.649928D-31    0.391081D+00
   0   392    0.596036D-35    0.278568D-19    0.171234D-31    0.391081D+00
   0   393    0.117000D-35    0.110547D-19    0.236235D-32    0.391081D+00
   0   394    0.229820D-36    0.438662D-20    0.525015D-33    0.391081D+00
   0   395    0.454066D-37    0.174043D-20    0.930331D-34    0.391081D+00
   0   396    0.888791D-38    0.690184D-21    0.228832D-34    0.391081D+00
   0   397    0.173280D-38    0.272923D-21    0.488399D-35    0.391081D+00