variables =  "IG"  "JG"  "PHI"  "Temp."  "Latent_heat"  "mm"
ZONE  I=  401  J=  101
   0     0    0.100000D+01    0.960098D+00    0.000000D+00    0.239113D+00
   0     1    0.100000D+01    0.960098D+00    0.000000D+00    0.239113D+00
   0     2    0.100000D+01    0.960588D+00    0.000000D+00    0.238617D+00
   0     3    0.100000D+01    0.961564D+00    0.000000D+00    0.237620D+00
   0     4    0.100000D+01    0.963020D+00    0.000000D+00    0.236117D+00
   0     5    0.100000D+01    0.964945D+00    0.000000D+00    0.234097D+00
   0     6    0.100000D+01    0.967324D+00    0.000000D+00    0.231546D+00
   0     7    0.100000D+01    0.970141D+00    0.000000D+00    0.228448D+00
   0     8    0.100000D+01    0.973375D+00    0.000000D+00    0.224784D+00
   0     9    0.100000D+01    0.977003D+00    0.000000D+00    0.220530D+00
   0    10    0.100000D+01    0.980999D+00    0.000000D+00    0.215664D+00
   0    11    0.100000D+01    0.985334D+00    0.000000D+00    0.210161D+00
   0    12    0.100000D+01    0.989977D+00    0.000000D+00    0.203996D+00
   0    13    0.100000D+01    0.994896D+00    0.000000D+00    0.197145D+00
   0    14    0.100000D+01    0.100006D+01    0.000000D+00    0.189589D+00
   0    15    0.100000D+01    0.100542D+01    0.000000D+00    0.181313D+00
   0    16    0.100000D+01    0.101095D+01    0.000000D+00    0.172311D+00
   0    17    0.100000D+01    0.101661D+01    0.000000D+00    0.162587D+00
   0    18    0.100000D+01    0.102236D+01    0.000000D+00    0.152163D+00
   0    19    0.100000D+01    0.102817D+01    0.000000D+00    0.141076D+00
   0    20    0.100000D+01    0.103398D+01    0.000000D+00    0.129386D+00
   0    21    0.100000D+01    0.103977D+01    0.000000D+00    0.117174D+00
   0    22    0.100000D+01    0.104550D+01    0.175023D-09    0.104547D+00
   0    23    0.100000D+01    0.105112D+01    0.933458D-09    0.916315D-01
   0    24    0.100000D+01    0.105661D+01    0.175023D-09    0.785752D-01
   0    25    0.100000D+01    0.106193D+01    0.149630D-06    0.655377D-01
   0    26    0.100000D+01    0.106704D+01    0.251217D-06    0.526853D-01
   0    27    0.100000D+01    0.107192D+01    0.147390D-05    0.401830D-01
   0    28    0.100000D+01    0.107653D+01    0.397049D-04    0.281864D-01
   0    29    0.999999D+00    0.108086D+01    0.348614D-03    0.168329D-01
   0    30    0.999992D+00    0.108488D+01   -0.263028D-02    0.623518D-02
   0    31    0.999939D+00    0.108857D+01   -0.233995D-01   -0.352048D-02
   0    32    0.999528D+00    0.109191D+01    0.103763D+00   -0.123508D-01
   0    33    0.996376D+00    0.109478D+01    0.858956D+00   -0.198862D-01
   0    34    0.973197D+00    0.109700D+01   -0.191316D+01   -0.259821D-01
   0    35    0.814575D+00    0.109987D+01    0.394682D+02   -0.328677D-01
   0    36    0.149532D+00    0.110140D+01   -0.644278D+02   -0.358511D-01
   0    37    0.206144D-01    0.110151D+01   -0.166516D+00   -0.371458D-01
   0    38    0.278496D-02    0.110184D+01    0.170301D+01   -0.383953D-01
   0    39    0.434960D-03    0.110135D+01    0.250440D+00   -0.370613D-01
   0    40    0.119021D-03    0.110032D+01    0.497356D-01   -0.344074D-01
   0    41    0.782486D-04    0.109888D+01   -0.535619D-01   -0.306516D-01
   0    42    0.785960D-04    0.109711D+01    0.362340D-01   -0.260139D-01
   0    43    0.988347D-04    0.109518D+01   -0.121876D-01   -0.209524D-01
   0    44    0.146385D-03    0.109341D+01   -0.120567D-01   -0.162939D-01
   0    45    0.251928D-03    0.109233D+01   -0.172538D+00   -0.134578D-01
   0    46    0.409057D-03    0.109247D+01   -0.501383D-01   -0.138061D-01
   0    47    0.523368D-03    0.109376D+01    0.300093D+00   -0.172280D-01
   0    48    0.570186D-03    0.109559D+01   -0.197183D+00   -0.219972D-01
   0    49    0.574331D-03    0.109748D+01    0.292760D+00   -0.269731D-01
   0    50    0.557554D-03    0.109915D+01   -0.357678D+00   -0.313858D-01
   0    51    0.535519D-03    0.110044D+01    0.526031D-01   -0.346844D-01
   0    52    0.518384D-03    0.110138D+01    0.149757D+00   -0.371171D-01
   0    53    0.515888D-03    0.110198D+01    0.196059D+00   -0.387384D-01
   0    54    0.508304D-03    0.110238D+01   -0.211512D+00   -0.397139D-01
   0    55    0.501801D-03    0.110259D+01   -0.172885D-01   -0.403005D-01
   0    56    0.504181D-03    0.110266D+01    0.150410D+00   -0.404893D-01
   0    57    0.505901D-03    0.110273D+01    0.117110D+00   -0.406428D-01
   0    58    0.506346D-03    0.110261D+01    0.104272D+00   -0.403452D-01
   0    59    0.508410D-03    0.110224D+01    0.154874D+00   -0.393586D-01
   0    60    0.518404D-03    0.110190D+01    0.235418D+00   -0.385023D-01
   0    61    0.514245D-03    0.110158D+01    0.251814D+00   -0.376857D-01
   0    62    0.514973D-03    0.110131D+01    0.301121D+00   -0.369519D-01
   0    63    0.531888D-03    0.110097D+01   -0.420243D+00   -0.361183D-01
   0    64    0.533874D-03    0.110062D+01    0.296842D+00   -0.351587D-01
   0    65    0.537256D-03    0.110014D+01    0.173119D-01   -0.338969D-01
   0    66    0.549413D-03    0.109960D+01    0.288305D+00   -0.325267D-01
   0    67    0.555869D-03    0.109901D+01    0.304253D+00   -0.309850D-01
   0    68    0.560165D-03    0.109842D+01    0.172768D+00   -0.294253D-01
   0    69    0.576877D-03    0.109785D+01   -0.352411D+00   -0.279732D-01
   0    70    0.591910D-03    0.109732D+01    0.144333D+00   -0.265567D-01
   0    71    0.600231D-03    0.109662D+01   -0.149572D+00   -0.247154D-01
   0    72    0.599572D-03    0.109597D+01   -0.319217D+00   -0.229801D-01
   0    73    0.607692D-03    0.109523D+01   -0.290596D+00   -0.210843D-01
   0    74    0.609047D-03    0.109452D+01   -0.105477D+00   -0.191796D-01
   0    75    0.624954D-03    0.109377D+01   -0.343255D+00   -0.171749D-01
   0    76    0.630652D-03    0.109288D+01   -0.176879D+00   -0.148678D-01
   0    77    0.642595D-03    0.109205D+01    0.312312D+00   -0.127051D-01
   0    78    0.664659D-03    0.109118D+01   -0.307429D+00   -0.103608D-01
   0    79    0.693003D-03    0.109038D+01    0.211811D+00   -0.832897D-02
   0    80    0.689173D-03    0.108958D+01    0.338707D+00   -0.614595D-02
   0    81    0.722185D-03    0.108882D+01   -0.321966D+00   -0.412877D-02
   0    82    0.731457D-03    0.108810D+01   -0.953163D-01   -0.222429D-02
   0    83    0.762167D-03    0.108737D+01    0.124192D-01   -0.375860D-03
   0    84    0.762560D-03    0.108654D+01   -0.916302D-02    0.180336D-02
   0    85    0.768921D-03    0.108552D+01   -0.222921D-01    0.458748D-02
   0    86    0.792769D-03    0.108476D+01    0.347587D+00    0.652847D-02
   0    87    0.808786D-03    0.108396D+01   -0.960012D-01    0.868484D-02
   0    88    0.825613D-03    0.108326D+01   -0.497962D+00    0.105108D-01
   0    89    0.844881D-03    0.108250D+01    0.446916D+00    0.125752D-01
   0    90    0.864255D-03    0.108165D+01   -0.117038D+00    0.148242D-01
   0    91    0.893941D-03    0.108078D+01   -0.969203D-01    0.170795D-01
   0    92    0.911272D-03    0.107981D+01   -0.447320D+00    0.196364D-01
   0    93    0.939105D-03    0.107889D+01    0.337600D+00    0.220211D-01
   0    94    0.976413D-03    0.107794D+01   -0.910248D-01    0.245864D-01
   0    95    0.100281D-02    0.107686D+01   -0.280639D+00    0.273969D-01
   0    96    0.104849D-02    0.107569D+01   -0.274989D+00    0.304334D-01
   0    97    0.106061D-02    0.107496D+01   -0.802689D-01    0.323594D-01
   0    98    0.109827D-02    0.107423D+01   -0.418495D-02    0.342015D-01
   0    99    0.110708D-02    0.107335D+01   -0.624419D-01    0.365759D-01
   0   100    0.113147D-02    0.107247D+01    0.704579D+00    0.388359D-01
   0   101    0.115068D-02    0.107168D+01   -0.210221D+00    0.408272D-01
   0   102    0.121376D-02    0.107083D+01   -0.953011D+00    0.430428D-01
   0   103    0.126124D-02    0.106979D+01   -0.317428D+00    0.457445D-01
   0   104    0.131700D-02    0.106871D+01   -0.541612D+00    0.484755D-01
   0   105    0.140378D-02    0.106763D+01    0.232962D+00    0.511677D-01
   0   106    0.144947D-02    0.106663D+01    0.163510D+00    0.536428D-01
   0   107    0.146477D-02    0.106580D+01   -0.355117D+00    0.557898D-01
   0   108    0.150473D-02    0.106541D+01    0.181330D+00    0.568418D-01
   0   109    0.153353D-02    0.106509D+01   -0.628608D-01    0.575923D-01
   0   110    0.159412D-02    0.106514D+01    0.502866D+00    0.575703D-01
   0   111    0.162052D-02    0.106486D+01    0.477076D+00    0.581149D-01
   0   112    0.168164D-02    0.106438D+01    0.260265D+00    0.594793D-01
   0   113    0.180214D-02    0.106386D+01   -0.142552D+00    0.607791D-01
   0   114    0.188175D-02    0.106370D+01    0.406312D-01    0.611163D-01
   0   115    0.195917D-02    0.106388D+01   -0.408161D+00    0.605510D-01
   0   116    0.199472D-02    0.106456D+01   -0.108049D+01    0.589925D-01
   0   117    0.205611D-02    0.106545D+01    0.493522D+00    0.565947D-01
   0   118    0.213965D-02    0.106652D+01    0.896491D+00    0.539863D-01
   0   119    0.226006D-02    0.106793D+01    0.106534D+00    0.503734D-01
   0   120    0.235510D-02    0.106921D+01    0.593690D+00    0.471230D-01
   0   121    0.243456D-02    0.107128D+01    0.164686D+01    0.418432D-01
   0   122    0.248805D-02    0.107328D+01    0.287214D+00    0.365086D-01
   0   123    0.248446D-02    0.107505D+01   -0.129882D+01    0.320208D-01
   0   124    0.252314D-02    0.107680D+01    0.964051D-01    0.274979D-01
   0   125    0.253982D-02    0.107858D+01   -0.110640D+01    0.228247D-01
   0   126    0.256892D-02    0.108010D+01    0.626606D+00    0.188160D-01
   0   127    0.259715D-02    0.108187D+01    0.894215D+00    0.140961D-01
   0   128    0.268877D-02    0.108407D+01   -0.107170D+01    0.836421D-02
   0   129    0.269666D-02    0.108583D+01   -0.106539D+01    0.372214D-02
   0   130    0.268771D-02    0.108802D+01    0.169945D+01   -0.226335D-02
   0   131    0.268344D-02    0.109039D+01   -0.951680D+00   -0.849914D-02
   0   132    0.273880D-02    0.109210D+01   -0.146843D+00   -0.131375D-01
   0   133    0.272021D-02    0.109357D+01   -0.218732D+00   -0.165993D-01
   0   134    0.278606D-02    0.109499D+01   -0.140901D+01   -0.205579D-01
   0   135    0.282974D-02    0.109723D+01    0.115597D+01   -0.264583D-01
   0   136    0.287774D-02    0.109847D+01    0.136694D+00   -0.295171D-01
   0   137    0.292659D-02    0.109974D+01    0.140250D+01   -0.328536D-01
   0   138    0.290043D-02    0.110061D+01    0.575659D+00   -0.353036D-01
   0   139    0.288982D-02    0.110179D+01    0.169101D+01   -0.381841D-01
   0   140    0.288151D-02    0.110280D+01    0.261028D+00   -0.408825D-01
   0   141    0.291300D-02    0.110376D+01    0.955895D+00   -0.432326D-01
   0   142    0.295576D-02    0.110450D+01    0.122813D+01   -0.454126D-01
   0   143    0.298919D-02    0.110537D+01    0.902813D+00   -0.475994D-01
   0   144    0.302504D-02    0.110587D+01    0.832465D+00   -0.486179D-01
   0   145    0.305305D-02    0.110667D+01    0.925334D+00   -0.507633D-01
   0   146    0.306390D-02    0.110692D+01   -0.106521D+01   -0.514279D-01
   0   147    0.308475D-02    0.110739D+01   -0.172012D+01   -0.527072D-01
   0   148    0.307444D-02    0.110761D+01   -0.109438D+01   -0.530957D-01
   0   149    0.312288D-02    0.110767D+01   -0.220801D+01   -0.533701D-01
   0   150    0.313864D-02    0.110783D+01   -0.104366D+01   -0.536323D-01
   0   151    0.319896D-02    0.110813D+01   -0.467466D+00   -0.545407D-01
   0   152    0.322400D-02    0.110839D+01   -0.151995D+00   -0.551622D-01
   0   153    0.324707D-02    0.110865D+01    0.992823D-01   -0.559114D-01
   0   154    0.328559D-02    0.110883D+01    0.679909D+00   -0.561827D-01
   0   155    0.335831D-02    0.110842D+01    0.439855D+00   -0.550833D-01
   0   156    0.338419D-02    0.110819D+01    0.132660D+01   -0.547361D-01
   0   157    0.338540D-02    0.110803D+01    0.634037D-01   -0.540502D-01
   0   158    0.342459D-02    0.110777D+01    0.227078D+01   -0.533809D-01
   0   159    0.343317D-02    0.110751D+01    0.783820D+00   -0.526487D-01
   0   160    0.350182D-02    0.110753D+01   -0.606547D+00   -0.530742D-01
   0   161    0.354218D-02    0.110747D+01    0.191173D+01   -0.527197D-01
   0   162    0.357521D-02    0.110710D+01   -0.142536D+01   -0.520510D-01
   0   163    0.366707D-02    0.110695D+01   -0.281246D+00   -0.513571D-01
   0   164    0.368324D-02    0.110660D+01    0.255526D+00   -0.504801D-01
   0   165    0.376788D-02    0.110603D+01   -0.392191D+00   -0.490667D-01
   0   166    0.385037D-02    0.110526D+01   -0.667835D+00   -0.473010D-01
   0   167    0.395164D-02    0.110443D+01   -0.140205D+01   -0.450421D-01
   0   168    0.398255D-02    0.110350D+01    0.689246D+00   -0.428238D-01
   0   169    0.406684D-02    0.110283D+01    0.159195D+01   -0.408493D-01
   0   170    0.407854D-02    0.110185D+01   -0.176879D+01   -0.384060D-01
   0   171    0.418599D-02    0.110103D+01   -0.370678D+00   -0.362754D-01
   0   172    0.428150D-02    0.110056D+01   -0.146339D+01   -0.347441D-01
   0   173    0.441694D-02    0.109941D+01    0.185291D+01   -0.321369D-01
   0   174    0.449773D-02    0.109850D+01    0.102471D+01   -0.293287D-01
   0   175    0.457864D-02    0.109820D+01   -0.173152D+01   -0.290842D-01
   0   176    0.467272D-02    0.109703D+01    0.239099D+01   -0.256777D-01
   0   177    0.475703D-02    0.109615D+01    0.256012D+01   -0.232810D-01
   0   178    0.486680D-02    0.109517D+01   -0.232807D+01   -0.208213D-01
   0   179    0.502814D-02    0.109395D+01   -0.117563D+01   -0.179220D-01
   0   180    0.525247D-02    0.109242D+01    0.176558D+01   -0.134281D-01
   0   181    0.522885D-02    0.109117D+01    0.223445D+00   -0.106312D-01
   0   182    0.543612D-02    0.109029D+01   -0.341203D+01   -0.852327D-02
   0   183    0.553379D-02    0.108889D+01    0.365995D+01   -0.398415D-02
   0   184    0.571463D-02    0.108752D+01    0.134028D+01   -0.112342D-02
   0   185    0.599072D-02    0.108637D+01   -0.426141D+01    0.262050D-02
   0   186    0.619505D-02    0.108506D+01   -0.176148D+01    0.599549D-02
   0   187    0.652727D-02    0.108413D+01   -0.173384D+01    0.825048D-02
   0   188    0.659349D-02    0.108283D+01    0.268153D+01    0.112357D-01
   0   189    0.693412D-02    0.108022D+01   -0.195491D+01    0.188787D-01
   0   190    0.714498D-02    0.107843D+01    0.377974D+01    0.230468D-01
   0   191    0.738805D-02    0.107654D+01   -0.479097D+01    0.279323D-01
   0   192    0.774203D-02    0.107511D+01   -0.545814D+01    0.320117D-01
   0   193    0.805569D-02    0.107391D+01   -0.263930D+01    0.348893D-01
   0   194    0.848983D-02    0.107286D+01   -0.125680D+01    0.375606D-01
   0   195    0.897252D-02    0.107204D+01   -0.287478D+01    0.402348D-01
   0   196    0.930603D-02    0.107048D+01   -0.138167D+01    0.442568D-01
   0   197    0.966637D-02    0.106834D+01   -0.420755D+01    0.494840D-01
   0   198    0.991752D-02    0.106686D+01    0.365067D+01    0.527176D-01
   0   199    0.106183D-01    0.106575D+01   -0.619583D+00    0.556871D-01
   0   200    0.110232D-01    0.106538D+01    0.872748D+00    0.565951D-01
   0   201    0.116656D-01    0.106435D+01   -0.247660D+00    0.593644D-01
   0   202    0.123563D-01    0.106413D+01   -0.278631D+01    0.599869D-01
   0   203    0.132153D-01    0.106394D+01   -0.399255D+01    0.600019D-01
   0   204    0.137865D-01    0.106374D+01    0.493893D+01    0.603072D-01
   0   205    0.148799D-01    0.106341D+01   -0.115619D+01    0.624197D-01
   0   206    0.156180D-01    0.106323D+01   -0.770116D+01    0.617559D-01
   0   207    0.166127D-01    0.106529D+01   -0.519865D+01    0.560851D-01
   0   208    0.169265D-01    0.106588D+01   -0.479669D+00    0.552741D-01
   0   209    0.170738D-01    0.106603D+01    0.211636D+01    0.546447D-01
   0   210    0.175465D-01    0.106907D+01   -0.476184D+01    0.476833D-01
   0   211    0.178821D-01    0.107016D+01    0.945800D+01    0.440802D-01
   0   212    0.189974D-01    0.107426D+01   -0.504292D+00    0.334491D-01
   0   213    0.196915D-01    0.107691D+01   -0.129088D+02    0.269652D-01
   0   214    0.200440D-01    0.107929D+01    0.347275D+00    0.205486D-01
   0   215    0.206036D-01    0.108157D+01   -0.232401D-01    0.145811D-01
   0   216    0.207662D-01    0.108382D+01    0.492170D+01    0.943899D-02
   0   217    0.212063D-01    0.108585D+01    0.784946D+01    0.366490D-02
   0   218    0.224907D-01    0.109036D+01   -0.362525D+01   -0.732020D-02
   0   219    0.229538D-01    0.109214D+01   -0.145377D+02   -0.136042D-01
   0   220    0.230975D-01    0.109403D+01   -0.655497D+01   -0.187123D-01
   0   221    0.233091D-01    0.109687D+01   -0.674330D+01   -0.270007D-01
   0   222    0.235987D-01    0.109785D+01    0.128656D+02   -0.269534D-01
   0   223    0.234425D-01    0.109872D+01   -0.469424D+01   -0.317476D-01
   0   224    0.239224D-01    0.110103D+01    0.108501D+02   -0.358623D-01
   0   225    0.245369D-01    0.110102D+01    0.116834D+02   -0.367733D-01
   0   226    0.250571D-01    0.110241D+01    0.700679D+00   -0.399732D-01
   0   227    0.252859D-01    0.110463D+01   -0.126878D+02   -0.456043D-01
   0   228    0.255950D-01    0.110468D+01   -0.160735D+02   -0.459320D-01
   0   229    0.260062D-01    0.110593D+01   -0.148909D+02   -0.504220D-01
   0   230    0.267303D-01    0.110867D+01    0.792151D+01   -0.547162D-01
   0   231    0.269678D-01    0.110815D+01    0.640633D+01   -0.536584D-01
   0   232    0.272200D-01    0.110780D+01    0.113296D+02   -0.554044D-01
   0   233    0.282171D-01    0.110807D+01   -0.156567D+02   -0.555105D-01
   0   234    0.287411D-01    0.110782D+01   -0.961479D+00   -0.538384D-01
   0   235    0.292781D-01    0.110702D+01   -0.210629D+02   -0.529694D-01
   0   236    0.297350D-01    0.110840D+01    0.153172D+02   -0.547849D-01
   0   237    0.309871D-01    0.110672D+01    0.175751D+02   -0.499135D-01
   0   238    0.316817D-01    0.110743D+01    0.658485D+01   -0.526581D-01
   0   239    0.327356D-01    0.110511D+01    0.525804D+01   -0.447864D-01
   0   240    0.340657D-01    0.110393D+01    0.712435D+01   -0.442999D-01
   0   241    0.351625D-01    0.110273D+01   -0.180139D+02   -0.396197D-01
   0   242    0.357181D-01    0.110274D+01   -0.454799D+01   -0.402419D-01
   0   243    0.377760D-01    0.109904D+01   -0.135193D+02   -0.320710D-01
   0   244    0.390466D-01    0.109669D+01   -0.118842D+02   -0.265164D-01
   0   245    0.408803D-01    0.109588D+01   -0.809616D+00   -0.211479D-01
   0   246    0.429493D-01    0.109234D+01   -0.615674D+01   -0.148112D-01
   0   247    0.449308D-01    0.109036D+01    0.909109D+01   -0.100065D-01
   0   248    0.478751D-01    0.108785D+01   -0.207508D+02   -0.972257D-04
   0   249    0.507637D-01    0.108803D+01   -0.288257D+02   -0.565563D-03
   0   250    0.552761D-01    0.108461D+01   -0.708628D+00    0.879827D-02
   0   251    0.602887D-01    0.108056D+01    0.550716D+01    0.147077D-01
   0   252    0.665526D-01    0.107892D+01    0.423836D+01    0.224517D-01
   0   253    0.716669D-01    0.107595D+01    0.796154D+01    0.324978D-01
   0   254    0.823624D-01    0.107408D+01   -0.286691D+02    0.378596D-01
   0   255    0.942917D-01    0.107074D+01   -0.429185D+02    0.415599D-01
   0   256    0.105250D+00    0.107452D+01   -0.617868D+02    0.351459D-01
   0   257    0.117434D+00    0.107532D+01   -0.104588D+02    0.304870D-01
   0   258    0.128725D+00    0.107542D+01   -0.605107D+02    0.310433D-01
   0   259    0.137062D+00    0.107917D+01    0.319578D+02    0.192450D-01
   0   260    0.149434D+00    0.108405D+01   -0.271478D+02    0.897326D-02
   0   261    0.160614D+00    0.108938D+01    0.689163D+02   -0.862028D-02
   0   262    0.172057D+00    0.109851D+01   -0.103044D+02   -0.297659D-01
   0   263    0.180616D+00    0.110078D+01    0.875318D+02   -0.357238D-01
   0   264    0.194328D+00    0.110673D+01   -0.635278D+02   -0.509003D-01
   0   265    0.209636D+00    0.110758D+01   -0.506953D+02   -0.501233D-01
   0   266    0.229443D+00    0.111223D+01   -0.103055D+03   -0.624041D-01
   0   267    0.253174D+00    0.110654D+01   -0.446078D+02   -0.504572D-01
   0   268    0.269761D+00    0.108940D+01   -0.768772D+02   -0.363005D-02
   0   269    0.241956D+00    0.101383D+01    0.199583D+03    0.166613D+00
   0   270    0.112226D+00    0.746295D+00    0.171432D+03    0.340742D+00
   0   271    0.327912D-01    0.416124D+00    0.429648D+02    0.376390D+00
   0   272    0.819379D-02    0.201258D+00    0.144210D+02    0.385670D+00
   0   273    0.192420D-02    0.902648D-01    0.493087D+01    0.388920D+00
   0   274    0.427882D-03    0.388778D-01    0.102050D+01    0.390195D+00
   0   275    0.940349D-04    0.163498D-01    0.244090D+00    0.390716D+00
   0   276    0.198380D-04    0.677596D-02    0.515084D-01    0.390931D+00
   0   277    0.423306D-05    0.278002D-02    0.925092D-02    0.391020D+00
   0   278    0.892388D-06    0.113240D-02    0.204258D-02    0.391056D+00
   0   279    0.188031D-06    0.458797D-03    0.398078D-03    0.391071D+00
   0   280    0.386869D-07    0.185101D-03    0.782934D-04    0.391077D+00
   0   281    0.787884D-08    0.744279D-04    0.126195D-04    0.391080D+00
   0   282    0.157863D-08    0.298448D-04    0.446450D-05    0.391081D+00
   0   283    0.320811D-09    0.119404D-04    0.880628D-06    0.391081D+00
   0   284    0.639451D-10    0.476816D-05    0.127710D-06    0.391081D+00
   0   285    0.130690D-10    0.190111D-05    0.311952D-07    0.391081D+00
   0   286    0.266740D-11    0.757012D-06    0.605852D-08    0.391081D+00
   0   287    0.540121D-12    0.301117D-06    0.149063D-08    0.391081D+00
   0   288    0.108111D-12    0.119671D-06    0.244720D-09    0.391081D+00
   0   289    0.215035D-13    0.475270D-07    0.483659D-10    0.391081D+00
   0   290    0.420999D-14    0.188646D-07    0.115905D-10    0.391081D+00
   0   291    0.859619D-15    0.748452D-08    0.208946D-11    0.391081D+00
   0   292    0.170139D-15    0.296847D-08    0.291701D-12    0.391081D+00
   0   293    0.336863D-16    0.117704D-08    0.771878D-13    0.391081D+00
   0   294    0.675026D-17    0.466622D-09    0.157120D-13    0.391081D+00
   0   295    0.131990D-17    0.184961D-09    0.243884D-14    0.391081D+00
   0   296    0.257653D-18    0.733093D-10    0.472375D-15    0.391081D+00
   0   297    0.511531D-19    0.290545D-10    0.113374D-15    0.391081D+00
   0   298    0.101483D-19    0.115149D-10    0.260016D-16    0.391081D+00
   0   299    0.200448D-20    0.456356D-11    0.539575D-17    0.391081D+00
   0   300    0.394369D-21    0.180867D-11    0.109964D-17    0.391081D+00
   0   301    0.772504D-22    0.716852D-12    0.204644D-18    0.391081D+00
   0   302    0.150857D-22    0.284134D-12    0.325228D-19    0.391081D+00
   0   303    0.295322D-23    0.112627D-12    0.708589D-20    0.391081D+00
   0   304    0.590163D-24    0.446474D-13    0.137058D-20    0.391081D+00
   0   305    0.113706D-24    0.177004D-13    0.323151D-21    0.391081D+00
   0   306    0.225822D-25    0.701789D-14    0.636884D-22    0.391081D+00
   0   307    0.443042D-26    0.278272D-14    0.726718D-23    0.391081D+00
   0   308    0.878410D-27    0.110350D-14    0.200466D-23    0.391081D+00
   0   309    0.173176D-27    0.437641D-15    0.334734D-24    0.391081D+00
   0   310    0.337208D-28    0.173582D-15    0.827424D-25    0.391081D+00
   0   311    0.659832D-29    0.688553D-16    0.160226D-25    0.391081D+00
   0   312    0.128605D-29    0.273157D-16    0.239077D-26    0.391081D+00
   0   313    0.252135D-30    0.108375D-16    0.567466D-27    0.391081D+00
   0   314    0.487917D-31    0.430025D-17    0.842788D-28    0.391081D+00
   0   315    0.958413D-32    0.170647D-17    0.186344D-28    0.391081D+00
   0   316    0.189125D-32    0.677249D-18    0.348447D-29    0.391081D+00
   0   317    0.369006D-33    0.268806D-18    0.675606D-30    0.391081D+00
   0   318    0.728374D-34    0.106702D-18    0.202831D-30    0.391081D+00
   0   319    0.139792D-34    0.423589D-19    0.360120D-31    0.391081D+00
   0   320    0.271556D-35    0.168174D-19    0.643898D-32    0.391081D+00
   0   321    0.521154D-36    0.667742D-20    0.136351D-32    0.391081D+00
   0   322    0.103199D-36    0.265153D-20    0.223000D-33    0.391081D+00
   0   323    0.198931D-37    0.105298D-20    0.433837D-34    0.391081D+00
   0   324    0.385716D-38    0.418194D-21    0.108720D-34    0.391081D+00
   0   325    0.769577D-39    0.166099D-21    0.160957D-35    0.391081D+00
   0   326    0.149790D-39    0.659766D-22    0.405215D-36    0.391081D+00
   0   327    0.293583D-40    0.262084D-22    0.623977D-37    0.391081D+00
   0   328    0.580622D-41    0.104117D-22    0.153808D-37    0.391081D+00
   0   329    0.113831D-41    0.413644D-23    0.280891D-38    0.391081D+00
   0   330    0.223661D-42    0.164345D-23    0.368972D-39    0.391081D+00
   0   331    0.422039D-43    0.652999D-24    0.108657D-39    0.391081D+00
   0   332    0.827427D-44    0.259471D-24    0.192509D-40    0.391081D+00
   0   333    0.158255D-44    0.103106D-24    0.464505D-41    0.391081D+00
   0   334    0.302706D-45    0.409733D-25    0.799393D-42    0.391081D+00
   0   335    0.589245D-46    0.162829D-25    0.141562D-42    0.391081D+00
   0   336    0.115420D-46    0.647112D-26    0.301284D-43    0.391081D+00
   0   337    0.230105D-47    0.257181D-26    0.615932D-44    0.391081D+00
   0   338    0.446985D-48    0.102214D-26    0.103664D-44    0.391081D+00
   0   339    0.873325D-49    0.406246D-27    0.189939D-45    0.391081D+00
   0   340    0.170384D-49    0.161464D-27    0.424993D-46    0.391081D+00
   0   341    0.327445D-50    0.641748D-28    0.979707D-47    0.391081D+00
   0   342    0.640430D-51    0.255068D-28    0.110491D-47    0.391081D+00
   0   343    0.125375D-51    0.101378D-28    0.224267D-48    0.391081D+00
   0   344    0.242789D-52    0.402932D-29    0.666509D-49    0.391081D+00
   0   345    0.477504D-53    0.160144D-29    0.130683D-49    0.391081D+00
   0   346    0.916198D-54    0.636474D-30    0.190056D-50    0.391081D+00
   0   347    0.179287D-54    0.252952D-30    0.473174D-51    0.391081D+00
   0   348    0.351819D-55    0.100526D-30    0.711041D-52    0.391081D+00
   0   349    0.668393D-56    0.399486D-31    0.164211D-52    0.391081D+00
   0   350    0.132247D-56    0.158746D-31    0.324065D-53    0.391081D+00
   0   351    0.259970D-57    0.630785D-32    0.715380D-54    0.391081D+00
   0   352    0.501443D-58    0.250629D-32    0.134035D-54    0.391081D+00
   0   353    0.976578D-59    0.995756D-33    0.269264D-55    0.391081D+00
   0   354    0.192840D-59    0.395587D-33    0.408426D-56    0.391081D+00
   0   355    0.368869D-60    0.157144D-33    0.827284D-57    0.391081D+00
   0   356    0.709974D-61    0.624189D-34    0.190773D-57    0.391081D+00
   0   357    0.139676D-61    0.247912D-34    0.307372D-58    0.391081D+00
   0   358    0.271830D-62    0.984551D-35    0.562735D-59    0.391081D+00
   0   359    0.534987D-63    0.390965D-35    0.145300D-59    0.391081D+00
   0   360    0.104062D-63    0.155237D-35    0.201577D-60    0.391081D+00
   0   361    0.206434D-64    0.616326D-36    0.582036D-61    0.391081D+00
   0   362    0.402923D-65    0.244670D-36    0.678566D-62    0.391081D+00
   0   363    0.783673D-66    0.971197D-37    0.205417D-62    0.391081D+00
   0   364    0.150942D-66    0.385468D-37    0.442472D-63    0.391081D+00
   0   365    0.293589D-67    0.152977D-37    0.601278D-64    0.391081D+00
   0   366    0.577983D-68    0.607042D-38    0.911348D-65    0.391081D+00
   0   367    0.113153D-68    0.240862D-38    0.300660D-65    0.391081D+00
   0   368    0.221751D-69    0.955594D-39    0.504866D-66    0.391081D+00
   0   369    0.433381D-70    0.379086D-39    0.110386D-66    0.391081D+00
   0   370    0.840586D-71    0.150370D-39    0.226740D-67    0.391081D+00
   0   371    0.164064D-71    0.596408D-40    0.330285D-68    0.391081D+00
   0   372    0.312342D-72    0.236531D-40    0.888533D-69    0.391081D+00
   0   373    0.613949D-73    0.937988D-41    0.103241D-69    0.391081D+00
   0   374    0.121058D-73    0.371939D-41    0.333703D-70    0.391081D+00
   0   375    0.239981D-74    0.147473D-41    0.523078D-71    0.391081D+00
   0   376    0.472369D-75    0.584688D-42    0.952625D-72    0.391081D+00
   0   377    0.925162D-76    0.231796D-42    0.193126D-72    0.391081D+00
   0   378    0.183987D-76    0.918890D-43    0.287270D-73    0.391081D+00
   0   379    0.356826D-77    0.364248D-43    0.972620D-74    0.391081D+00
   0   380    0.695680D-78    0.144381D-43    0.119046D-74    0.391081D+00
   0   381    0.133537D-78    0.572276D-44    0.392495D-75    0.391081D+00
   0   382    0.252194D-79    0.226823D-44    0.517074D-76    0.391081D+00
   0   383    0.497306D-80    0.898990D-45    0.123395D-76    0.391081D+00
   0   384    0.956568D-81    0.356299D-45    0.263938D-77    0.391081D+00
   0   385    0.184794D-81    0.141211D-45    0.369328D-78    0.391081D+00
   0   386    0.363159D-82    0.559655D-46    0.799947D-79    0.391081D+00
   0   387    0.724149D-83    0.221806D-46    0.139230D-79    0.391081D+00
   0   388    0.139730D-83    0.879083D-47    0.370019D-80    0.391081D+00
   0   389    0.274058D-84    0.348414D-47    0.463375D-81    0.391081D+00
   0   390    0.526941D-85    0.138093D-47    0.135359D-81    0.391081D+00
   0   391    0.105899D-85    0.547349D-48    0.241241D-82    0.391081D+00
   0   392    0.207002D-86    0.216958D-48    0.517273D-83    0.391081D+00
   0   393    0.393375D-87    0.860018D-49    0.115661D-83    0.391081D+00
   0   394    0.781939D-88    0.340927D-49    0.197504D-84    0.391081D+00
   0   395    0.152068D-88    0.135150D-49    0.417425D-85    0.391081D+00
   0   396    0.300073D-89    0.535570D-50    0.548408D-86    0.391081D+00
   0   397    0.581392D-90    0.211665D-50    0.134097D-86    0.391081D+00