variables =  "IG"  "JG"  "PHI"  "Temp."  "Latent_heat"  "mm"
ZONE  I=  401  J=  101
   0     0    0.100000D+01    0.588565D+00    0.000000D+00    0.363009D+00
   0     1    0.100000D+01    0.588565D+00    0.000000D+00    0.363009D+00
   0     2    0.100000D+01    0.594595D+00    0.000000D+00    0.362386D+00
   0     3    0.100000D+01    0.606507D+00    0.000000D+00    0.361110D+00
   0     4    0.100000D+01    0.624015D+00    0.000000D+00    0.359120D+00
   0     5    0.100000D+01    0.646701D+00    0.000000D+00    0.356318D+00
   0     6    0.100000D+01    0.674036D+00    0.000000D+00    0.352554D+00
   0     7    0.100000D+01    0.705399D+00    0.000000D+00    0.347611D+00
   0     8    0.100000D+01    0.740098D+00    0.000000D+00    0.341176D+00
   0     9    0.100000D+01    0.777399D+00    0.000000D+00    0.332788D+00
   0    10    0.100000D+01    0.816551D+00    0.000000D+00    0.321764D+00
   0    11    0.100000D+01    0.856807D+00    0.000000D+00    0.307069D+00
   0    12    0.100000D+01    0.897452D+00    0.000000D+00    0.287102D+00
   0    13    0.100000D+01    0.937819D+00    0.000000D+00    0.259369D+00
   0    14    0.100000D+01    0.977310D+00    0.000000D+00    0.220132D+00
   0    15    0.100000D+01    0.101540D+01    0.000000D+00    0.164659D+00
   0    16    0.100000D+01    0.105166D+01    0.000000D+00    0.902916D-01
   0    17    0.100000D+01    0.108575D+01    0.000000D+00    0.383535D-02
   0    18    0.100000D+01    0.111741D+01    0.000000D+00   -0.775821D-01
   0    19    0.100000D+01    0.114649D+01    0.000000D+00   -0.141506D+00
   0    20    0.100000D+01    0.117289D+01   -0.422973D-09   -0.187339D+00
   0    21    0.100000D+01    0.119662D+01    0.204194D-09   -0.219557D+00
   0    22    0.100000D+01    0.121773D+01    0.816776D-08   -0.242479D+00
   0    23    0.100000D+01    0.123631D+01   -0.541406D-07   -0.259135D+00
   0    24    0.100000D+01    0.125252D+01    0.143592D-06   -0.271490D+00
   0    25    0.100000D+01    0.126650D+01   -0.567309D-06   -0.280814D+00
   0    26    0.100000D+01    0.127843D+01   -0.759817D-05   -0.287933D+00
   0    27    0.100000D+01    0.128844D+01    0.139603D-04   -0.293391D+00
   0    28    0.100000D+01    0.129662D+01   -0.203530D-04   -0.297537D+00
   0    29    0.999999D+00    0.130294D+01    0.758491D-04   -0.300568D+00
   0    30    0.999995D+00    0.130723D+01   -0.126704D-02   -0.302544D+00
   0    31    0.999979D+00    0.130906D+01    0.850385D-02   -0.303368D+00
   0    32    0.999905D+00    0.130764D+01    0.231688D-01   -0.302734D+00
   0    33    0.999569D+00    0.130170D+01    0.201501D+00   -0.300000D+00
   0    34    0.998034D+00    0.128931D+01   -0.491101D+00   -0.293876D+00
   0    35    0.990773D+00    0.126769D+01   -0.563489D+01   -0.281606D+00
   0    36    0.955072D+00    0.123319D+01   -0.127129D+02   -0.256592D+00
   0    37    0.788101D+00    0.118235D+01   -0.448980D+02   -0.202117D+00
   0    38    0.286831D+00    0.112394D+01    0.203382D+02   -0.945646D-01
   0    39    0.782399D-01    0.111502D+01   -0.643898D+02   -0.740922D-01
   0    40    0.410497D-01    0.110462D+01    0.314671D+01   -0.446262D-01
   0    41    0.468577D-01    0.108989D+01   -0.185961D+02   -0.770699D-02
   0    42    0.725215D-01    0.107701D+01    0.146492D+02    0.258110D-01
   0    43    0.107810D+00    0.106703D+01   -0.753874D+02    0.517592D-01
   0    44    0.132940D+00    0.107318D+01   -0.406686D+02    0.342495D-01
   0    45    0.142837D+00    0.108238D+01    0.741310D+01    0.890363D-02
   0    46    0.154245D+00    0.108847D+01    0.371851D+02   -0.712174D-02
   0    47    0.171527D+00    0.109125D+01   -0.788582D+01   -0.104248D-01
   0    48    0.198922D+00    0.109458D+01   -0.936161D+02   -0.234723D-01
   0    49    0.221443D+00    0.109064D+01    0.924763D+02   -0.642699D-02
   0    50    0.241929D+00    0.106626D+01   -0.433637D+02    0.551768D-01
   0    51    0.194785D+00    0.971854D+00    0.136100D+03    0.229637D+00
   0    52    0.844046D-01    0.694727D+00    0.920964D+02    0.349916D+00
   0    53    0.251573D-01    0.388626D+00    0.356263D+02    0.377882D+00
   0    54    0.638616D-02    0.191541D+00    0.963653D+01    0.385982D+00
   0    55    0.155258D-02    0.881512D-01    0.391799D+01    0.388975D+00
   0    56    0.356693D-03    0.389403D-01    0.620911D+00    0.390194D+00
   0    57    0.800419D-04    0.167720D-01    0.222667D+00    0.390707D+00
   0    58    0.176378D-04    0.710451D-02    0.374609D-01    0.390924D+00
   0    59    0.382990D-05    0.297518D-02    0.878561D-02    0.391016D+00
   0    60    0.808026D-06    0.123575D-02    0.230353D-02    0.391054D+00
   0    61    0.170332D-06    0.510086D-03    0.280386D-03    0.391070D+00
   0    62    0.350010D-07    0.209520D-03    0.878268D-04    0.391077D+00
   0    63    0.744221D-08    0.857152D-04    0.145288D-04    0.391079D+00
   0    64    0.153246D-08    0.349465D-04    0.262390D-05    0.391080D+00
   0    65    0.312098D-09    0.142052D-04    0.877752D-06    0.391081D+00
   0    66    0.645964D-10    0.575860D-05    0.183936D-06    0.391081D+00
   0    67    0.135603D-10    0.232866D-05    0.220692D-07    0.391081D+00
   0    68    0.276789D-11    0.939454D-06    0.618384D-08    0.391081D+00
   0    69    0.556326D-12    0.378153D-06    0.107007D-08    0.391081D+00
   0    70    0.113451D-12    0.151882D-06    0.184816D-09    0.391081D+00
   0    71    0.231745D-13    0.608705D-07    0.515986D-10    0.391081D+00
   0    72    0.463880D-14    0.243428D-07    0.933900D-11    0.391081D+00
   0    73    0.933468D-15    0.971390D-08    0.182421D-11    0.391081D+00
   0    74    0.190790D-15    0.386780D-08    0.321215D-12    0.391081D+00
   0    75    0.377705D-16    0.153661D-08    0.102086D-12    0.391081D+00
   0    76    0.745603D-17    0.609071D-09    0.209000D-13    0.391081D+00
   0    77    0.151818D-17    0.240851D-09    0.347330D-14    0.391081D+00
   0    78    0.303182D-18    0.950105D-10    0.520664D-15    0.391081D+00
   0    79    0.609958D-19    0.373848D-10    0.137349D-15    0.391081D+00
   0    80    0.122015D-19    0.146716D-10    0.275480D-16    0.391081D+00
   0    81    0.242808D-20    0.574203D-11    0.441889D-17    0.391081D+00
   0    82    0.479105D-21    0.224083D-11    0.123686D-17    0.391081D+00
   0    83    0.984122D-22    0.871869D-12    0.233497D-18    0.391081D+00
   0    84    0.191150D-22    0.338168D-12    0.556065D-19    0.391081D+00
   0    85    0.382705D-23    0.130734D-12    0.884663D-20    0.391081D+00
   0    86    0.768807D-24    0.503684D-13    0.123009D-20    0.391081D+00
   0    87    0.153088D-24    0.193363D-13    0.417529D-21    0.391081D+00
   0    88    0.303102D-25    0.739552D-14    0.780512D-22    0.391081D+00
   0    89    0.594837D-26    0.281759D-14    0.131663D-22    0.391081D+00
   0    90    0.118975D-26    0.106914D-14    0.212821D-23    0.391081D+00
   0    91    0.233151D-27    0.403993D-15    0.395739D-24    0.391081D+00
   0    92    0.451220D-28    0.151996D-15    0.108318D-24    0.391081D+00
   0    93    0.900170D-29    0.569308D-16    0.160072D-25    0.391081D+00
   0    94    0.179780D-29    0.212256D-16    0.374163D-26    0.391081D+00
   0    95    0.349836D-30    0.787612D-17    0.978596D-27    0.391081D+00
   0    96    0.703744D-31    0.290837D-17    0.155213D-27    0.391081D+00
   0    97    0.138342D-31    0.106861D-17    0.270256D-28    0.391081D+00
   0    98    0.273504D-32    0.390639D-18    0.437884D-29    0.391081D+00
   0    99    0.536102D-33    0.142059D-18    0.158090D-29    0.391081D+00
   0   100    0.107228D-33    0.513874D-19    0.228543D-30    0.391081D+00
   0   101    0.210728D-34    0.184883D-19    0.430847D-31    0.391081D+00
   0   102    0.418242D-35    0.661541D-20    0.690884D-32    0.391081D+00
   0   103    0.814482D-36    0.235396D-20    0.190601D-32    0.391081D+00
   0   104    0.158547D-36    0.832894D-21    0.353419D-33    0.391081D+00
   0   105    0.308004D-37    0.293024D-21    0.716774D-34    0.391081D+00
   0   106    0.602319D-38    0.102497D-21    0.169501D-34    0.391081D+00
   0   107    0.120303D-38    0.356442D-22    0.316632D-35    0.391081D+00
   0   108    0.232685D-39    0.123230D-22    0.695624D-36    0.391081D+00
   0   109    0.455609D-40    0.423518D-23    0.889330D-37    0.391081D+00
   0   110    0.878727D-41    0.144690D-23    0.205959D-37    0.391081D+00
   0   111    0.171082D-41    0.491361D-24    0.505791D-38    0.391081D+00
   0   112    0.339336D-42    0.165861D-24    0.712080D-39    0.391081D+00
   0   113    0.673288D-43    0.556489D-25    0.174831D-39    0.391081D+00
   0   114    0.132144D-43    0.185578D-25    0.360829D-40    0.391081D+00
   0   115    0.259925D-44    0.615103D-26    0.719154D-41    0.391081D+00
   0   116    0.504451D-45    0.202633D-26    0.130834D-41    0.391081D+00
   0   117    0.985225D-46    0.663448D-27    0.276876D-42    0.391081D+00
   0   118    0.191302D-46    0.215890D-27    0.545463D-43    0.391081D+00
   0   119    0.379257D-47    0.698208D-28    0.100373D-43    0.391081D+00
   0   120    0.739055D-48    0.224419D-28    0.162860D-44    0.391081D+00
   0   121    0.143892D-48    0.716891D-29    0.344164D-45    0.391081D+00
   0   122    0.275993D-49    0.227597D-29    0.830793D-46    0.391081D+00
   0   123    0.538568D-50    0.718120D-30    0.120177D-46    0.391081D+00
   0   124    0.103618D-50    0.225188D-30    0.258967D-47    0.391081D+00
   0   125    0.203814D-51    0.701802D-31    0.490011D-48    0.391081D+00
   0   126    0.394164D-52    0.217372D-31    0.745582D-49    0.391081D+00
   0   127    0.768898D-53    0.669139D-32    0.219488D-49    0.391081D+00
   0   128    0.151084D-53    0.204717D-32    0.391629D-50    0.391081D+00
   0   129    0.294275D-54    0.622473D-33    0.626675D-51    0.391081D+00
   0   130    0.571930D-55    0.188114D-33    0.148725D-51    0.391081D+00
   0   131    0.108251D-55    0.565009D-34    0.208765D-52    0.391081D+00
   0   132    0.208800D-56    0.168668D-34    0.379426D-53    0.391081D+00
   0   133    0.403063D-57    0.500443D-35    0.952711D-54    0.391081D+00
   0   134    0.784677D-58    0.147580D-35    0.139638D-54    0.391081D+00
   0   135    0.150315D-58    0.432572D-36    0.304969D-55    0.391081D+00
   0   136    0.287361D-59    0.126023D-36    0.565633D-56    0.391081D+00
   0   137    0.547152D-60    0.364931D-37    0.158539D-56    0.391081D+00
   0   138    0.106471D-60    0.105038D-37    0.313267D-57    0.391081D+00
   0   139    0.203082D-61    0.300511D-38    0.604126D-58    0.391081D+00
   0   140    0.405231D-62    0.854599D-39    0.955322D-59    0.391081D+00
   0   141    0.774064D-63    0.241579D-39    0.184749D-59    0.391081D+00
   0   142    0.146850D-63    0.678824D-40    0.420956D-60    0.391081D+00
   0   143    0.271009D-64    0.189611D-40    0.832714D-61    0.391081D+00
   0   144    0.515519D-65    0.526483D-41    0.148466D-61    0.391081D+00
   0   145    0.989037D-66    0.145321D-41    0.204366D-62    0.391081D+00
   0   146    0.184793D-66    0.398752D-42    0.540529D-63    0.391081D+00
   0   147    0.349217D-67    0.108771D-42    0.635731D-64    0.391081D+00
   0   148    0.665504D-68    0.294966D-43    0.148205D-64    0.391081D+00
   0   149    0.126546D-68    0.795211D-44    0.278885D-65    0.391081D+00
   0   150    0.240671D-69    0.213134D-44    0.553394D-66    0.391081D+00
   0   151    0.458292D-70    0.567929D-45    0.127648D-66    0.391081D+00
   0   152    0.859210D-71    0.150456D-45    0.189297D-67    0.391081D+00
   0   153    0.160185D-71    0.396289D-46    0.481000D-68    0.391081D+00
   0   154    0.300655D-72    0.103778D-46    0.838950D-69    0.391081D+00
   0   155    0.562577D-73    0.270210D-47    0.163524D-69    0.391081D+00
   0   156    0.103328D-73    0.699527D-48    0.322253D-70    0.391081D+00
   0   157    0.193277D-74    0.180063D-48    0.568687D-71    0.391081D+00
   0   158    0.355166D-75    0.460862D-49    0.103051D-71    0.391081D+00
   0   159    0.659128D-76    0.117287D-49    0.148007D-72    0.391081D+00
   0   160    0.120394D-76    0.296804D-50    0.303248D-73    0.391081D+00
   0   161    0.222148D-77    0.746860D-51    0.452642D-74    0.391081D+00
   0   162    0.406247D-78    0.186882D-51    0.127384D-74    0.391081D+00
   0   163    0.736960D-79    0.465008D-52    0.187873D-75    0.391081D+00
   0   164    0.134446D-79    0.115061D-52    0.312554D-76    0.391081D+00
   0   165    0.245602D-80    0.283125D-53    0.624515D-77    0.391081D+00
   0   166    0.443610D-81    0.692819D-54    0.143230D-77    0.391081D+00
   0   167    0.808552D-82    0.168601D-54    0.206768D-78    0.391081D+00
   0   168    0.147057D-82    0.408044D-55    0.405143D-79    0.391081D+00
   0   169    0.265092D-83    0.982131D-56    0.665876D-80    0.391081D+00
   0   170    0.488124D-84    0.235102D-56    0.151591D-80    0.391081D+00
   0   171    0.860897D-85    0.559724D-57    0.220376D-81    0.391081D+00
   0   172    0.153975D-85    0.132535D-57    0.443573D-82    0.391081D+00
   0   173    0.273166D-86    0.312132D-58    0.745169D-83    0.391081D+00
   0   174    0.482753D-87    0.731140D-59    0.153323D-83    0.391081D+00
   0   175    0.849727D-88    0.170344D-59    0.199050D-84    0.391081D+00
   0   176    0.146756D-88    0.394755D-60    0.366208D-85    0.391081D+00
   0   177    0.256946D-89    0.909931D-61    0.631014D-86    0.391081D+00
   0   178    0.447139D-90    0.208631D-61    0.102996D-86    0.391081D+00
   0   179    0.797446D-91    0.475823D-62    0.191057D-87    0.391081D+00
   0   180    0.138278D-91    0.107949D-62    0.445297D-88    0.391081D+00
   0   181    0.242082D-92    0.243614D-63    0.765853D-89    0.391081D+00
   0   182    0.419561D-93    0.546900D-64    0.120907D-89    0.391081D+00
   0   183    0.724231D-94    0.122136D-64    0.251466D-90    0.391081D+00
   0   184    0.122685D-94    0.271342D-65    0.380489D-91    0.391081D+00
   0   185    0.207620D-95    0.599701D-66    0.546524D-92    0.391081D+00
   0   186    0.344023D-96    0.131858D-66    0.903577D-93    0.391081D+00
   0   187    0.589995D-97    0.288428D-67    0.203120D-93    0.391081D+00
   0   188    0.988991D-98    0.627681D-68    0.307954D-94    0.391081D+00
   0   189    0.165131D-98    0.135899D-68    0.524749D-95    0.391081D+00
   0   190    0.275187D-99    0.292739D-69    0.871528D-96    0.391081D+00
   0   191    0.464240-100    0.627387D-70    0.164582D-96    0.391081D+00
   0   192    0.772469-101    0.133780D-70    0.197212D-97    0.391081D+00
   0   193    0.125216-101    0.283827D-71    0.498429D-98    0.391081D+00
   0   194    0.206008-102    0.599148D-72    0.617746D-99    0.391081D+00
   0   195    0.335992-103    0.125845D-72    0.129246D-99    0.391081D+00
   0   196    0.546397-104    0.263009D-73    0.219956-100    0.391081D+00
   0   197    0.894452-105    0.546945D-74    0.247948-101    0.391081D+00
   0   198    0.143393-105    0.113178D-74    0.457056-102    0.391081D+00
   0   199    0.225379-106    0.233043D-75    0.939422-103    0.391081D+00
   0   200    0.363593-107    0.477498D-76    0.132391-103    0.391081D+00
   0   201    0.570547-108    0.973590D-77    0.197717-104    0.391081D+00
   0   202    0.918508-109    0.197541D-77    0.284906-105    0.391081D+00
   0   203    0.147120-109    0.398861D-78    0.417807-106    0.391081D+00
   0   204    0.233367-110    0.801453D-79    0.833615-107    0.391081D+00
   0   205    0.361394-111    0.160263D-79    0.149384-107    0.391081D+00
   0   206    0.557913-112    0.318930D-80    0.210336-108    0.391081D+00
   0   207    0.866852-113    0.631641D-81    0.264588-109    0.391081D+00
   0   208    0.134718-113    0.124499D-81    0.450619-110    0.391081D+00
   0   209    0.209495-114    0.244225D-82    0.720286-111    0.391081D+00
   0   210    0.323882-115    0.476815D-83    0.134799-111    0.391081D+00
   0   211    0.497433-116    0.926514D-84    0.210162-112    0.391081D+00
   0   212    0.761786-117    0.179186D-84    0.282873-113    0.391081D+00
   0   213    0.114798-117    0.344915D-85    0.477557-114    0.391081D+00
   0   214    0.171699-118    0.660823D-86    0.578904-115    0.391081D+00
   0   215    0.257537-119    0.126017D-86    0.969838-116    0.391081D+00
   0   216    0.391103-120    0.239194D-87    0.155031-116    0.391081D+00
   0   217    0.583429-121    0.451916D-88    0.232513-117    0.391081D+00
   0   218    0.858394-122    0.849879D-89    0.344727-118    0.391081D+00
   0   219    0.128548-122    0.159094D-89    0.522741-119    0.391081D+00
   0   220    0.189690-123    0.296455D-90    0.711059-120    0.391081D+00
   0   221    0.278663-124    0.549889D-91    0.106072-120    0.391081D+00
   0   222    0.399420-125    0.101534D-91    0.186912-121    0.391081D+00
   0   223    0.592635-126    0.186626D-92    0.229076-122    0.391081D+00
   0   224    0.828619-127    0.341483D-93    0.412783-123    0.391081D+00
   0   225    0.119036-127    0.622019D-94    0.499852-124    0.391081D+00
   0   226    0.174059-128    0.112794D-94    0.618645-125    0.391081D+00
   0   227    0.250305-129    0.203620D-95    0.913588-126    0.391081D+00
   0   228    0.349941-130    0.365943D-96    0.171238-126    0.391081D+00
   0   229    0.490047-131    0.654748D-97    0.226129-127    0.391081D+00
   0   230    0.685294-132    0.116629D-97    0.347343-128    0.391081D+00
   0   231    0.963388-133    0.206833D-98    0.472710-129    0.391081D+00
   0   232    0.133283-133    0.365190D-99    0.677942-130    0.391081D+00
   0   233    0.186456-134    0.641962-100    0.701870-131    0.391081D+00
   0   234    0.256984-135    0.112357-100    0.113954-131    0.391081D+00
   0   235    0.353715-136    0.195791-101    0.164267-132    0.391081D+00
   0   236    0.493702-137    0.339703-102    0.243931-133    0.391081D+00
   0   237    0.673061-138    0.586843-103    0.332374-134    0.391081D+00
   0   238    0.900765-139    0.100941-103    0.441699-135    0.391081D+00
   0   239    0.124076-139    0.172881-104    0.542887-136    0.391081D+00
   0   240    0.165420-140    0.294822-105    0.881909-137    0.391081D+00
   0   241    0.221145-141    0.500629-106    0.107270-137    0.391081D+00
   0   242    0.298730-142    0.846488-107    0.140941-138    0.391081D+00
   0   243    0.396787-143    0.142521-107    0.172684-139    0.391081D+00
   0   244    0.526127-144    0.238946-108    0.281375-140    0.391081D+00
   0   245    0.697680-145    0.398921-109    0.345899-141    0.391081D+00
   0   246    0.941793-146    0.663203-110    0.409942-142    0.391081D+00
   0   247    0.124584-146    0.109796-110    0.651452-143    0.391081D+00
   0   248    0.163769-147    0.181012-111    0.804305-144    0.391081D+00
   0   249    0.210564-148    0.297181-112    0.973076-145    0.391081D+00
   0   250    0.272876-149    0.485883-113    0.146064-145    0.391081D+00
   0   251    0.349122-150    0.791122-114    0.168860-146    0.391081D+00
   0   252    0.450841-151    0.128281-114    0.246577-147    0.391081D+00
   0   253    0.579185-152    0.207156-115    0.272791-148    0.391081D+00
   0   254    0.747277-153    0.333159-116    0.397886-149    0.391081D+00
   0   255    0.940655-154    0.533617-117    0.445655-150    0.391081D+00
   0   256    0.118839-154    0.851215-118    0.650635-151    0.391081D+00
   0   257    0.148263-155    0.135234-118    0.844949-152    0.391081D+00
   0   258    0.190228-156    0.213980-119    0.101167-152    0.391081D+00
   0   259    0.237654-157    0.337217-120    0.133437-153    0.391081D+00
   0   260    0.291881-158    0.529295-121    0.153586-154    0.391081D+00
   0   261    0.360252-159    0.827458-122    0.171895-155    0.391081D+00
   0   262    0.445497-160    0.128842-122    0.255461-156    0.391081D+00
   0   263    0.547443-161    0.199820-123    0.312509-157    0.391081D+00
   0   264    0.664832-162    0.308671-124    0.351725-158    0.391081D+00
   0   265    0.826928-163    0.474933-125    0.450287-159    0.391081D+00
   0   266    0.995383-164    0.727872-126    0.573157-160    0.391081D+00
   0   267    0.121821-164    0.111114-126    0.591505-161    0.391081D+00
   0   268    0.149175-165    0.168958-127    0.781552-162    0.391081D+00
   0   269    0.176076-166    0.255912-128    0.101370-162    0.391081D+00
   0   270    0.207503-167    0.386108-129    0.119130-163    0.391081D+00
   0   271    0.248832-168    0.580282-130    0.152186-164    0.391081D+00
   0   272    0.291226-169    0.868734-131    0.189685-165    0.391081D+00
   0   273    0.343999-170    0.129556-131    0.197991-166    0.391081D+00
   0   274    0.403538-171    0.192466-132    0.236360-167    0.391081D+00
   0   275    0.480854-172    0.284829-133    0.245306-168    0.391081D+00
   0   276    0.553676-173    0.419906-134    0.359895-169    0.391081D+00
   0   277    0.650230-174    0.616683-135    0.338149-170    0.391081D+00
   0   278    0.752270-175    0.902236-136    0.455522-171    0.391081D+00
   0   279    0.878291-176    0.131501-136    0.553679-172    0.391081D+00
   0   280    0.101306-176    0.190941-137    0.591418-173    0.391081D+00
   0   281    0.116371-177    0.276203-138    0.695323-174    0.391081D+00
   0   282    0.132261-178    0.398039-139    0.842834-175    0.391081D+00
   0   283    0.147116-179    0.571473-140    0.103455-175    0.391081D+00
   0   284    0.169790-180    0.817415-141    0.104269-176    0.391081D+00
   0   285    0.193173-181    0.116485-141    0.126949-177    0.391081D+00
   0   286    0.217462-182    0.165381-142    0.125775-178    0.391081D+00
   0   287    0.244876-183    0.233933-143    0.153826-179    0.391081D+00
   0   288    0.271772-184    0.329681-144    0.179607-180    0.391081D+00
   0   289    0.297464-185    0.462910-145    0.195301-181    0.391081D+00
   0   290    0.334450-186    0.647597-146    0.189578-182    0.391081D+00
   0   291    0.369103-187    0.902658-147    0.255928-183    0.391081D+00
   0   292    0.404316-188    0.125359-147    0.288421-184    0.391081D+00
   0   293    0.445644-189    0.173463-148    0.264531-185    0.391081D+00
   0   294    0.481728-190    0.239157-149    0.316434-186    0.391081D+00
   0   295    0.527996-191    0.328539-150    0.360787-187    0.391081D+00
   0   296    0.578219-192    0.449701-151    0.374815-188    0.391081D+00
   0   297    0.625460-193    0.613336-152    0.385485-189    0.391081D+00
   0   298    0.675186-194    0.833516-153    0.449545-190    0.391081D+00
   0   299    0.725255-195    0.112869-153    0.502991-191    0.391081D+00
   0   300    0.782148-196    0.152296-154    0.551060-192    0.391081D+00
   0   301    0.832696-197    0.204765-155    0.570042-193    0.391081D+00
   0   302    0.889318-198    0.274335-156    0.641501-194    0.391081D+00
   0   303    0.941087-199    0.366245-157    0.634063-195    0.391081D+00
   0   304    0.997072-200    0.487226-158    0.674735-196    0.391081D+00
   0   305    0.105277-200    0.645893-159    0.773067-197    0.391081D+00
   0   306    0.108699-201    0.853233-160    0.844295-198    0.391081D+00
   0   307    0.113410-202    0.112319-160    0.770891-199    0.391081D+00
   0   308    0.119221-203    0.147342-161    0.820250-200    0.391081D+00
   0   309    0.123945-204    0.192615-162    0.921260-201    0.391081D+00
   0   310    0.127365-205    0.250925-163    0.974297-202    0.391081D+00
   0   311    0.131268-206    0.325759-164    0.942969-203    0.391081D+00
   0   312    0.133213-207    0.421454-165    0.102138-203    0.391081D+00
   0   313    0.139196-208    0.543388-166    0.105156-204    0.391081D+00
   0   314    0.140673-209    0.698199-167    0.103965-205    0.391081D+00
   0   315    0.142252-210    0.894051-168    0.106808-206    0.391081D+00
   0   316    0.145383-211    0.114094-168    0.113147-207    0.391081D+00
   0   317    0.148332-212    0.145106-169    0.105841-208    0.391081D+00
   0   318    0.149419-213    0.183922-170    0.108819-209    0.391081D+00
   0   319    0.149542-214    0.232334-171    0.107833-210    0.391081D+00
   0   320    0.147666-215    0.292499-172    0.113729-211    0.391081D+00
   0   321    0.146873-216    0.367007-173    0.109488-212    0.391081D+00
   0   322    0.148413-217    0.458951-174    0.107969-213    0.391081D+00
   0   323    0.147082-218    0.572009-175    0.103401-214    0.391081D+00
   0   324    0.142620-219    0.710540-176    0.104762-215    0.391081D+00
   0   325    0.141818-220    0.879686-177    0.104037-216    0.391081D+00
   0   326    0.137589-221    0.108549-177    0.101431-217    0.391081D+00
   0   327    0.134770-222    0.133500-178    0.105435-218    0.391081D+00
   0   328    0.129694-223    0.163645-179    0.100475-219    0.391081D+00
   0   329    0.125519-224    0.199936-180    0.972052-221    0.391081D+00
   0   330    0.120812-225    0.243474-181    0.935704-222    0.391081D+00
   0   331    0.118917-226    0.295523-182    0.892274-223    0.391081D+00
   0   332    0.114074-227    0.357526-183    0.913080-224    0.391081D+00
   0   333    0.108417-228    0.431129-184    0.830781-225    0.391081D+00
   0   334    0.104691-229    0.518196-185    0.843776-226    0.391081D+00
   0   335    0.980458-231    0.620828-186    0.820179-227    0.391081D+00
   0   336    0.918095-232    0.741382-187    0.778639-228    0.391081D+00
   0   337    0.875380-233    0.882492-188    0.677127-229    0.391081D+00
   0   338    0.818298-234    0.104708-188    0.718065-230    0.391081D+00
   0   339    0.771832-235    0.123838-189    0.584804-231    0.391081D+00
   0   340    0.727879-236    0.145995-190    0.547493-232    0.391081D+00
   0   341    0.670783-237    0.171567-191    0.522591-233    0.391081D+00
   0   342    0.609058-238    0.200976-192    0.494389-234    0.391081D+00
   0   343    0.563207-239    0.234678-193    0.458667-235    0.391081D+00
   0   344    0.523196-240    0.273164-194    0.408822-236    0.391081D+00
   0   345    0.471837-241    0.316957-195    0.428554-237    0.391081D+00
   0   346    0.440398-242    0.366612-196    0.353291-238    0.391081D+00
   0   347    0.404614-243    0.422712-197    0.331088-239    0.391081D+00
   0   348    0.367446-244    0.485870-198    0.336635-240    0.391081D+00
   0   349    0.330198-245    0.556716-199    0.267261-241    0.391081D+00
   0   350    0.302865-246    0.635902-200    0.274702-242    0.391081D+00
   0   351    0.273590-247    0.724091-201    0.240865-243    0.391081D+00
   0   352    0.245562-248    0.821949-202    0.204433-244    0.391081D+00
   0   353    0.219606-249    0.930143-203    0.177017-245    0.391081D+00
   0   354    0.197657-250    0.104933-203    0.162996-246    0.391081D+00
   0   355    0.176011-251    0.118013-204    0.164175-247    0.391081D+00
   0   356    0.154341-252    0.132316-205    0.129915-248    0.391081D+00
   0   357    0.137401-253    0.147898-206    0.116625-249    0.391081D+00
   0   358    0.122330-254    0.164808-207    0.105947-250    0.391081D+00
   0   359    0.109432-255    0.183091-208    0.990835-252    0.391081D+00
   0   360    0.937175-257    0.202784-209    0.884688-253    0.391081D+00
   0   361    0.831528-258    0.223911-210    0.721816-254    0.391081D+00
   0   362    0.727495-259    0.246491-211    0.662775-255    0.391081D+00
   0   363    0.633791-260    0.270527-212    0.535080-256    0.391081D+00
   0   364    0.548540-261    0.296012-213    0.477671-257    0.391081D+00
   0   365    0.477164-262    0.322922-214    0.442480-258    0.391081D+00
   0   366    0.412420-263    0.351222-215    0.378179-259    0.391081D+00
   0   367    0.349622-264    0.380857-216    0.313783-260    0.391081D+00
   0   368    0.298443-265    0.411758-217    0.261370-261    0.391081D+00
   0   369    0.251611-266    0.443840-218    0.244712-262    0.391081D+00
   0   370    0.216050-267    0.476999-219    0.210684-263    0.391081D+00
   0   371    0.184031-268    0.511113-220    0.160228-264    0.391081D+00
   0   372    0.156598-269    0.546047-221    0.144350-265    0.391081D+00
   0   373    0.131982-270    0.581645-222    0.130455-266    0.391081D+00
   0   374    0.112872-271    0.617738-223    0.100640-267    0.391081D+00
   0   375    0.942295-273    0.654142-224    0.854774-269    0.391081D+00
   0   376    0.787216-274    0.690659-225    0.802664-270    0.391081D+00
   0   377    0.655365-275    0.727081-226    0.588551-271    0.391081D+00
   0   378    0.536764-276    0.763189-227    0.537394-272    0.391081D+00
   0   379    0.449257-277    0.798757-228    0.428224-273    0.391081D+00
   0   380    0.373256-278    0.833553-229    0.366740-274    0.391081D+00
   0   381    0.307935-279    0.867342-230    0.298882-275    0.391081D+00
   0   382    0.253816-280    0.899889-231    0.252377-276    0.391081D+00
   0   383    0.205280-281    0.930963-232    0.197431-277    0.391081D+00
   0   384    0.166084-282    0.960336-233    0.162452-278    0.391081D+00
   0   385    0.136393-283    0.987789-234    0.127725-279    0.391081D+00
   0   386    0.111225-284    0.101311-234    0.108025-280    0.391081D+00
   0   387    0.902716-286    0.103611-235    0.874978-282    0.391081D+00
   0   388    0.730644-287    0.105661-236    0.686360-283    0.391081D+00
   0   389    0.583254-288    0.107445-237    0.630284-284    0.391081D+00
   0   390    0.475129-289    0.108948-238    0.498180-285    0.391081D+00
   0   391    0.382317-290    0.110159-239    0.407148-286    0.391081D+00
   0   392    0.308690-291    0.111068-240    0.314586-287    0.391081D+00
   0   393    0.242439-292    0.111669-241    0.239552-288    0.391081D+00
   0   394    0.193349-293    0.111956-242    0.202685-289    0.391081D+00
   0   395    0.152777-294    0.111929-243    0.159205-290    0.391081D+00
   0   396    0.121719-295    0.111588-244    0.130808-291    0.391081D+00
   0   397    0.959669-297    0.110937-245    0.972513-293    0.391081D+00