variables =  "IG"  "JG"  "PHI"  "Temp."  "Latent_heat"  "mm"
ZONE  I=  401  J=  101
   0     0    0.100000D+01    0.320503D+00    0.000000D+00    0.381049D+00
   0     1    0.100000D+01    0.320503D+00    0.000000D+00    0.381049D+00
   0     2    0.100000D+01    0.339679D+00    0.000000D+00    0.380179D+00
   0     3    0.100000D+01    0.376714D+00    0.000000D+00    0.378369D+00
   0     4    0.100000D+01    0.429172D+00    0.875117D-10    0.375464D+00
   0     5    0.100000D+01    0.493844D+00    0.802191D-09    0.371193D+00
   0     6    0.100000D+01    0.567153D+00    0.735098D-08    0.365108D+00
   0     7    0.100000D+01    0.645532D+00    0.631397D-07    0.356463D+00
   0     8    0.100000D+01    0.725696D+00    0.599309D-06    0.343977D+00
   0     9    0.100000D+01    0.804796D+00    0.276123D-05    0.325346D+00
   0    10    0.100000D+01    0.880461D+00    0.623396D-04    0.296203D+00
   0    11    0.100000D+01    0.950776D+00    0.276529D-03    0.248070D+00
   0    12    0.999997D+00    0.101422D+01    0.367313D-02    0.166688D+00
   0    13    0.999978D+00    0.106959D+01    0.377365D-01    0.460928D-01
   0    14    0.999863D+00    0.111598D+01    0.263761D+00   -0.740302D-01
   0    15    0.999339D+00    0.115258D+01    0.913423D+00   -0.152991D+00
   0    16    0.997387D+00    0.117846D+01    0.208592D+01   -0.195461D+00
   0    17    0.990867D+00    0.119191D+01    0.144996D+02   -0.213517D+00
   0    18    0.970344D+00    0.118802D+01    0.538955D+02   -0.208610D+00
   0    19    0.913202D+00    0.115691D+01    0.116394D+03   -0.160679D+00
   0    20    0.763054D+00    0.106553D+01    0.460155D+03    0.600403D-01
   0    21    0.314958D+00    0.738372D+00    0.668170D+03    0.342643D+00
   0    22    0.680455D-01    0.354788D+00    0.173476D+03    0.379599D+00
   0    23    0.130066D-01    0.147312D+00    0.228142D+02    0.387349D+00
   0    24    0.245572D-02    0.574619D-01    0.706953D+01    0.389751D+00
   0    25    0.458195D-03    0.216673D-01    0.121420D+01    0.390597D+00
   0    26    0.847926D-04    0.799152D-02    0.218753D+00    0.390905D+00
   0    27    0.153327D-04    0.289544D-02    0.429873D-01    0.391018D+00
   0    28    0.283404D-05    0.103154D-02    0.591782D-02    0.391059D+00
   0    29    0.542396D-06    0.361204D-03    0.144407D-02    0.391073D+00
   0    30    0.103910D-06    0.124244D-03    0.214903D-03    0.391078D+00
   0    31    0.189857D-07    0.419569D-04    0.496868D-04    0.391080D+00
   0    32    0.352279D-08    0.139053D-04    0.753019D-05    0.391081D+00
   0    33    0.670231D-09    0.452143D-05    0.152419D-05    0.391081D+00
   0    34    0.121426D-09    0.144213D-05    0.279728D-06    0.391081D+00
   0    35    0.225892D-10    0.451128D-06    0.606137D-07    0.391081D+00
   0    36    0.420651D-11    0.138397D-06    0.103535D-07    0.391081D+00
   0    37    0.762254D-12    0.416357D-07    0.161150D-08    0.391081D+00
   0    38    0.138011D-12    0.122830D-07    0.314906D-09    0.391081D+00
   0    39    0.246107D-13    0.355336D-08    0.654492D-10    0.391081D+00
   0    40    0.445212D-14    0.100802D-08    0.129582D-10    0.391081D+00
   0    41    0.796779D-15    0.280415D-09    0.174808D-11    0.391081D+00
   0    42    0.143352D-15    0.764951D-10    0.353263D-12    0.391081D+00
   0    43    0.254183D-16    0.204631D-10    0.782530D-13    0.391081D+00
   0    44    0.451829D-17    0.536807D-11    0.968361D-14    0.391081D+00
   0    45    0.791620D-18    0.138097D-11    0.262459D-14    0.391081D+00
   0    46    0.135327D-18    0.348397D-12    0.499668D-15    0.391081D+00
   0    47    0.234550D-19    0.862001D-13    0.674820D-16    0.391081D+00
   0    48    0.405438D-20    0.209169D-13    0.102654D-16    0.391081D+00
   0    49    0.696257D-21    0.497817D-14    0.196431D-17    0.391081D+00
   0    50    0.115141D-21    0.116211D-14    0.392730D-18    0.391081D+00
   0    51    0.194828D-22    0.266115D-15    0.643205D-19    0.391081D+00
   0    52    0.318034D-23    0.597820D-16    0.106339D-19    0.391081D+00
   0    53    0.515423D-24    0.131763D-16    0.171012D-20    0.391081D+00
   0    54    0.847149D-25    0.284965D-17    0.301966D-21    0.391081D+00
   0    55    0.134261D-25    0.604806D-18    0.507226D-22    0.391081D+00
   0    56    0.210831D-26    0.125987D-18    0.865297D-23    0.391081D+00
   0    57    0.324339D-27    0.257621D-19    0.126997D-23    0.391081D+00
   0    58    0.494515D-28    0.517191D-20    0.167406D-24    0.391081D+00
   0    59    0.748621D-29    0.101954D-20    0.340304D-25    0.391081D+00
   0    60    0.110379D-29    0.197381D-21    0.474960D-26    0.391081D+00
   0    61    0.162599D-30    0.375350D-22    0.641363D-27    0.391081D+00
   0    62    0.233728D-31    0.701244D-23    0.101144D-27    0.391081D+00
   0    63    0.328557D-32    0.128730D-23    0.155945D-28    0.391081D+00
   0    64    0.462311D-33    0.232245D-24    0.198302D-29    0.391081D+00
   0    65    0.623927D-34    0.411859D-25    0.335124D-30    0.391081D+00
   0    66    0.852081D-35    0.718064D-26    0.435374D-31    0.391081D+00
   0    67    0.113965D-35    0.123103D-26    0.550919D-32    0.391081D+00
   0    68    0.149928D-36    0.207562D-27    0.826817D-33    0.391081D+00
   0    69    0.194128D-37    0.344252D-28    0.101200D-33    0.391081D+00
   0    70    0.246469D-38    0.561738D-29    0.135244D-34    0.391081D+00
   0    71    0.312198D-39    0.901980D-30    0.178058D-35    0.391081D+00
   0    72    0.385846D-40    0.142542D-30    0.235094D-36    0.391081D+00
   0    73    0.465373D-41    0.221743D-31    0.289976D-37    0.391081D+00
   0    74    0.561852D-42    0.339620D-32    0.335688D-38    0.391081D+00
   0    75    0.662998D-43    0.512207D-33    0.361862D-39    0.391081D+00
   0    76    0.780630D-44    0.760820D-34    0.483474D-40    0.391081D+00
   0    77    0.891111D-45    0.111320D-34    0.536111D-41    0.391081D+00
   0    78    0.997607D-46    0.160471D-35    0.698738D-42    0.391081D+00
   0    79    0.110810D-46    0.227938D-36    0.761547D-43    0.391081D+00
   0    80    0.121700D-47    0.319083D-37    0.816890D-44    0.391081D+00
   0    81    0.131174D-48    0.440279D-38    0.818265D-45    0.391081D+00
   0    82    0.140071D-49    0.598901D-39    0.103605D-45    0.391081D+00
   0    83    0.147343D-50    0.803251D-40    0.968963D-47    0.391081D+00
   0    84    0.152395D-51    0.106238D-40    0.103507D-47    0.391081D+00
   0    85    0.156224D-52    0.138583D-41    0.109177D-48    0.391081D+00
   0    86    0.160226D-53    0.178319D-42    0.116613D-49    0.391081D+00
   0    87    0.159458D-54    0.226363D-43    0.128458D-50    0.391081D+00
   0    88    0.157833D-55    0.283528D-44    0.120833D-51    0.391081D+00
   0    89    0.151309D-56    0.350450D-45    0.113570D-52    0.391081D+00
   0    90    0.144511D-57    0.427519D-46    0.106960D-53    0.391081D+00
   0    91    0.136793D-58    0.514801D-47    0.119922D-54    0.391081D+00
   0    92    0.128264D-59    0.611977D-48    0.103018D-55    0.391081D+00
   0    93    0.118591D-60    0.718284D-49    0.102653D-56    0.391081D+00
   0    94    0.109039D-61    0.832486D-50    0.858808D-58    0.391081D+00
   0    95    0.989629D-63    0.952863D-51    0.910266D-59    0.391081D+00
   0    96    0.882711D-64    0.107723D-51    0.716266D-60    0.391081D+00
   0    97    0.758901D-65    0.120299D-52    0.686647D-61    0.391081D+00
   0    98    0.665215D-66    0.132720D-53    0.627368D-62    0.391081D+00
   0    99    0.570425D-67    0.144673D-54    0.529900D-63    0.391081D+00
   0   100    0.479091D-68    0.155833D-55    0.440964D-64    0.391081D+00
   0   101    0.403987D-69    0.165883D-56    0.402000D-65    0.391081D+00
   0   102    0.336356D-70    0.174525D-57    0.316784D-66    0.391081D+00
   0   103    0.275114D-71    0.181499D-58    0.279368D-67    0.391081D+00
   0   104    0.224437D-72    0.186593D-59    0.233303D-68    0.391081D+00
   0   105    0.177542D-73    0.189656D-60    0.177369D-69    0.391081D+00
   0   106    0.140452D-74    0.190602D-61    0.140350D-70    0.391081D+00
   0   107    0.109189D-75    0.189419D-62    0.110930D-71    0.391081D+00
   0   108    0.851079D-77    0.186163D-63    0.896867D-73    0.391081D+00
   0   109    0.652764D-78    0.180958D-64    0.745431D-74    0.391081D+00
   0   110    0.492068D-79    0.173988D-65    0.569810D-75    0.391081D+00
   0   111    0.370218D-80    0.165484D-66    0.399589D-76    0.391081D+00
   0   112    0.272119D-81    0.155713D-67    0.303901D-77    0.391081D+00
   0   113    0.198822D-82    0.144966D-68    0.231619D-78    0.391081D+00
   0   114    0.145981D-83    0.133542D-69    0.160502D-79    0.391081D+00
   0   115    0.105532D-84    0.121734D-70    0.126296D-80    0.391081D+00
   0   116    0.745928D-86    0.109821D-71    0.882187D-82    0.391081D+00
   0   117    0.526649D-87    0.980566D-73    0.649743D-83    0.391081D+00
   0   118    0.371156D-88    0.866600D-74    0.462087D-84    0.391081D+00
   0   119    0.255434D-89    0.758134D-75    0.300876D-85    0.391081D+00
   0   120    0.170564D-90    0.656585D-76    0.215230D-86    0.391081D+00
   0   121    0.116039D-91    0.562973D-77    0.139727D-87    0.391081D+00
   0   122    0.780339D-93    0.477934D-78    0.962967D-89    0.391081D+00
   0   123    0.507745D-94    0.401758D-79    0.654019D-90    0.391081D+00
   0   124    0.334285D-95    0.334431D-80    0.434256D-91    0.391081D+00
   0   125    0.217424D-96    0.275694D-81    0.281933D-92    0.391081D+00
   0   126    0.139696D-97    0.225090D-82    0.193156D-93    0.391081D+00
   0   127    0.877993D-99    0.182022D-83    0.121930D-94    0.391081D+00
   0   128    0.557356-100    0.145800D-84    0.769321D-96    0.391081D+00
   0   129    0.346453-101    0.115688D-85    0.479698D-97    0.391081D+00
   0   130    0.213176-102    0.909378D-87    0.310172D-98    0.391081D+00
   0   131    0.131077-103    0.708195D-88    0.194570D-99    0.391081D+00
   0   132    0.800883-105    0.546438D-89    0.118122-100    0.391081D+00
   0   133    0.488286-106    0.417769D-90    0.701625-102    0.391081D+00
   0   134    0.294263-107    0.316495D-91    0.420846-103    0.391081D+00
   0   135    0.172249-108    0.237605D-92    0.266334-104    0.391081D+00
   0   136    0.101485-109    0.176780D-93    0.147827-105    0.391081D+00
   0   137    0.586663-111    0.130353D-94    0.921371-107    0.391081D+00
   0   138    0.340096-112    0.952677D-96    0.526017-108    0.391081D+00
   0   139    0.196173-113    0.690132D-97    0.292927-109    0.391081D+00
   0   140    0.112382-114    0.495570D-98    0.171517-110    0.391081D+00
   0   141    0.623962-116    0.352766D-99    0.102100-111    0.391081D+00
   0   142    0.347751-117    0.248945-100    0.577623-113    0.391081D+00
   0   143    0.191730-118    0.174171-101    0.322540-114    0.391081D+00
   0   144    0.104212-119    0.120817-102    0.179140-115    0.391081D+00
   0   145    0.562988-121    0.830967-104    0.970078-117    0.391081D+00
   0   146    0.303263-122    0.566714-105    0.526905-118    0.391081D+00
   0   147    0.162079-123    0.383257-106    0.272267-119    0.391081D+00
   0   148    0.859363-125    0.257031-107    0.147516-120    0.391081D+00
   0   149    0.448858-126    0.170950-108    0.784098-122    0.391081D+00
   0   150    0.231778-127    0.112763-109    0.416743-123    0.391081D+00
   0   151    0.119414-128    0.737722-111    0.211915-124    0.391081D+00
   0   152    0.614964-130    0.478710-112    0.109949-125    0.391081D+00
   0   153    0.310395-131    0.308123-113    0.565391-127    0.391081D+00
   0   154    0.156666-132    0.196729-114    0.294341-128    0.391081D+00
   0   155    0.784070-134    0.124602-115    0.144202-129    0.391081D+00
   0   156    0.389732-135    0.782907-117    0.728061-131    0.391081D+00
   0   157    0.189649-136    0.488031-118    0.358918-132    0.391081D+00
   0   158    0.924087-138    0.301824-119    0.172420-133    0.391081D+00
   0   159    0.450233-139    0.185203-120    0.873693-135    0.391081D+00
   0   160    0.215823-140    0.112758-121    0.417575-136    0.391081D+00
   0   161    0.102624-141    0.681196-123    0.204653-137    0.391081D+00
   0   162    0.483290-143    0.408356-124    0.925726-139    0.391081D+00
   0   163    0.229219-144    0.242921-125    0.433643-140    0.391081D+00
   0   164    0.105905-145    0.143406-126    0.208970-141    0.391081D+00
   0   165    0.486200-147    0.840168-128    0.100566-142    0.391081D+00
   0   166    0.226189-148    0.488512-129    0.458389-144    0.391081D+00
   0   167    0.103378-149    0.281911-130    0.210047-145    0.391081D+00
   0   168    0.464075-151    0.161471-131    0.956196-147    0.391081D+00
   0   169    0.208969-152    0.917986-133    0.429479-148    0.391081D+00
   0   170    0.921953-154    0.518031-134    0.190225-149    0.391081D+00
   0   171    0.409004-155    0.290180-135    0.855500-151    0.391081D+00
   0   172    0.179189-156    0.161357-136    0.393076-152    0.391081D+00
   0   173    0.778535-158    0.890706-138    0.165957-153    0.391081D+00
   0   174    0.332506-159    0.488111-139    0.748358-155    0.391081D+00
   0   175    0.142482-160    0.265557-140    0.312160-156    0.391081D+00
   0   176    0.609229-162    0.143439-141    0.133712-157    0.391081D+00
   0   177    0.257459-163    0.769236-143    0.573360-159    0.391081D+00
   0   178    0.107584-164    0.409592-144    0.246885-160    0.391081D+00
   0   179    0.450155-166    0.216549-145    0.101548-161    0.391081D+00
   0   180    0.186703-167    0.113681-146    0.422039-163    0.391081D+00
   0   181    0.762047-169    0.592602-148    0.179118-164    0.391081D+00
   0   182    0.312220-170    0.306756-149    0.713578-166    0.391081D+00
   0   183    0.127833-171    0.157686-150    0.293066-167    0.391081D+00
   0   184    0.512560-173    0.804959-152    0.124633-168    0.391081D+00
   0   185    0.204774-174    0.408086-153    0.479432-170    0.391081D+00
   0   186    0.811784-176    0.205466-154    0.192154-171    0.391081D+00
   0   187    0.322866-177    0.102742-155    0.785879-173    0.391081D+00
   0   188    0.126231-178    0.510263-157    0.310857-174    0.391081D+00
   0   189    0.492692-180    0.251703-158    0.117619-175    0.391081D+00
   0   190    0.189612-181    0.123323-159    0.468966-177    0.391081D+00
   0   191    0.738519-183    0.600165-161    0.178916-178    0.391081D+00
   0   192    0.279435-184    0.290125-162    0.706469-180    0.391081D+00
   0   193    0.105105-185    0.139315-163    0.274035-181    0.391081D+00
   0   194    0.396804-187    0.664536-165    0.100100-182    0.391081D+00
   0   195    0.148461-188    0.314893-166    0.379689-184    0.391081D+00
   0   196    0.556882-190    0.148231-167    0.144861-185    0.391081D+00
   0   197    0.205793-191    0.693209-169    0.532575-187    0.391081D+00
   0   198    0.749635-193    0.322066-170    0.199587-188    0.391081D+00
   0   199    0.275434-194    0.148660-171    0.709923-190    0.391081D+00
   0   200    0.984949-196    0.681745-173    0.264912-191    0.391081D+00
   0   201    0.357604-197    0.310629-174    0.964149-193    0.391081D+00
   0   202    0.128438-198    0.140625-175    0.340628-194    0.391081D+00
   0   203    0.458733-200    0.632555-177    0.122152-195    0.391081D+00
   0   204    0.161357-201    0.282720-178    0.449944-197    0.391081D+00
   0   205    0.561661-203    0.125560-179    0.158882-198    0.391081D+00
   0   206    0.196497-204    0.554100-181    0.542987-200    0.391081D+00
   0   207    0.675020-206    0.242986-182    0.193471-201    0.391081D+00
   0   208    0.232224-207    0.105887-183    0.643261-203    0.391081D+00
   0   209    0.799090-209    0.458539-185    0.221503-204    0.391081D+00
   0   210    0.268469-210    0.197332-186    0.775011-206    0.391081D+00
   0   211    0.909035-212    0.843948-188    0.261224-207    0.391081D+00
   0   212    0.305869-213    0.358707-189    0.899572-209    0.391081D+00
   0   213    0.101734-214    0.151523-190    0.300070-210    0.391081D+00
   0   214    0.337577-216    0.636129-192    0.971050-212    0.391081D+00
   0   215    0.110789-217    0.265428-193    0.331103-213    0.391081D+00
   0   216    0.362246-219    0.110076-194    0.106033-214    0.391081D+00
   0   217    0.117718-220    0.453724-196    0.346251-216    0.391081D+00
   0   218    0.378464-222    0.185890-197    0.112985-217    0.391081D+00
   0   219    0.121346-223    0.756993-199    0.374236-219    0.391081D+00
   0   220    0.385125-225    0.306415-200    0.121134-220    0.391081D+00
   0   221    0.123461-226    0.123287-201    0.384466-222    0.391081D+00
   0   222    0.387771-228    0.493091-203    0.121556-223    0.391081D+00
   0   223    0.121858-229    0.196040-204    0.387874-225    0.391081D+00
   0   224    0.385341-231    0.774782-206    0.117198-226    0.391081D+00
   0   225    0.118989-232    0.304397-207    0.373731-228    0.391081D+00
   0   226    0.366041-234    0.118888-208    0.118222-229    0.391081D+00
   0   227    0.111140-235    0.461610-210    0.355529-231    0.391081D+00
   0   228    0.340094-237    0.178183-211    0.108490-232    0.391081D+00
   0   229    0.103471-238    0.683779-213    0.338364-234    0.391081D+00
   0   230    0.313007-240    0.260876-214    0.103893-235    0.391081D+00
   0   231    0.938379-242    0.989531-216    0.313314-237    0.391081D+00
   0   232    0.279324-243    0.373172-217    0.937525-239    0.391081D+00
   0   233    0.824066-245    0.139920-218    0.276377-240    0.391081D+00
   0   234    0.241240-246    0.521618-220    0.806533-242    0.391081D+00
   0   235    0.706779-248    0.193345-221    0.241711-243    0.391081D+00
   0   236    0.205826-249    0.712571-223    0.688757-245    0.391081D+00
   0   237    0.594041-251    0.261125-224    0.206335-246    0.391081D+00
   0   238    0.168944-252    0.951478-226    0.591557-248    0.391081D+00
   0   239    0.488134-254    0.344738-227    0.166746-249    0.391081D+00
   0   240    0.138249-255    0.124201-228    0.485617-251    0.391081D+00
   0   241    0.389828-257    0.444953-230    0.139461-252    0.391081D+00
   0   242    0.110897-258    0.158513-231    0.379757-254    0.391081D+00
   0   243    0.309116-260    0.561544-233    0.111313-255    0.391081D+00
   0   244    0.856978-262    0.197824-234    0.311778-257    0.391081D+00
   0   245    0.236951-263    0.693034-236    0.850713-259    0.391081D+00
   0   246    0.650604-265    0.241447-237    0.239525-260    0.391081D+00
   0   247    0.178844-266    0.836535-239    0.638070-262    0.391081D+00
   0   248    0.484997-268    0.288238-240    0.180848-263    0.391081D+00
   0   249    0.131260-269    0.987706-242    0.477939-265    0.391081D+00
   0   250    0.353433-271    0.336606-243    0.131353-266    0.391081D+00
   0   251    0.945518-273    0.114088-244    0.347565-268    0.391081D+00
   0   252    0.252691-274    0.384581-246    0.947006-270    0.391081D+00
   0   253    0.663193-276    0.128936-247    0.248602-271    0.391081D+00
   0   254    0.174707-277    0.429935-249    0.672383-273    0.391081D+00
   0   255    0.458825-279    0.142588-250    0.173512-274    0.391081D+00
   0   256    0.119219-280    0.470346-252    0.456893-276    0.391081D+00
   0   257    0.305442-282    0.154318-253    0.121193-277    0.391081D+00
   0   258    0.793772-284    0.503598-255    0.308103-279    0.391081D+00
   0   259    0.202776-285    0.163466-256    0.806470-281    0.391081D+00
   0   260    0.518416-287    0.527780-258    0.200358-282    0.391081D+00
   0   261    0.130887-288    0.169498-259    0.520864-284    0.391081D+00
   0   262    0.330879-290    0.541467-261    0.133136-285    0.391081D+00
   0   263    0.833432-292    0.172059-262    0.327700-287    0.391081D+00
   0   264    0.206777-293    0.543865-264    0.833262-289    0.391081D+00
   0   265    0.512850-295    0.171007-265    0.210583-290    0.391081D+00
   0   266    0.125816-296    0.534880-267    0.511868-292    0.391081D+00
   0   267    0.309896-298    0.166426-268    0.127665-293    0.391081D+00
   0   268    0.762276-300    0.515127-270    0.314404-295    0.391081D+00
   0   269    0.183810-301    0.158615-271    0.756009-297    0.391081D+00
   0   270    0.445001-303    0.485861-273    0.185324-298    0.391081D+00
   0   271    0.106458-304    0.148056-274    0.450217-300    0.391081D+00
   0   272    0.254604-306    0.448842-276    0.105827-301    0.391081D+00
   0   273    0.610870-308    0.135368-277    0.253314-303    0.391081D+00
   0   274    0.145933-309    0.406166-279    0.622178-305    0.391081D+00
   0   275    0.343258-311    0.121243-280    0.148156-306    0.391081D+00
   0   276    0.809405-313    0.360068-282    0.343606-308    0.391081D+00
   0   277    0.187136-314    0.106387-283    0.806721-310    0.391081D+00
   0   278    0.433883-316    0.312737-285    0.186697-311    0.391081D+00
   0   279    0.100169-317    0.914654-287    0.437856-313    0.391081D+00
   0   280    0.239276-319    0.266152-288    0.102963-314    0.391081D+00
   0   281    0.000000D+00    0.770550-290    0.000000D+00    0.391081D+00
   0   282    0.000000D+00    0.221961-291    0.000000D+00    0.391081D+00
   0   283    0.000000D+00    0.636153-293    0.000000D+00    0.391081D+00
   0   284    0.000000D+00    0.181410-294    0.000000D+00    0.391081D+00
   0   285    0.000000D+00    0.514729-296    0.000000D+00    0.391081D+00
   0   286    0.000000D+00    0.145319-297    0.000000D+00    0.391081D+00
   0   287    0.000000D+00    0.408218-299    0.000000D+00    0.391081D+00
   0   288    0.000000D+00    0.114103-300    0.000000D+00    0.391081D+00
   0   289    0.000000D+00    0.317351-302    0.000000D+00    0.391081D+00
   0   290    0.000000D+00    0.878268-304    0.000000D+00    0.391081D+00
   0   291    0.000000D+00    0.241859-305    0.000000D+00    0.391081D+00
   0   292    0.000000D+00    0.662748-307    0.000000D+00    0.391081D+00
   0   293    0.000000D+00    0.180714-308    0.000000D+00    0.391081D+00
   0   294    0.000000D+00    0.490340-310    0.000000D+00    0.391081D+00
   0   295    0.000000D+00    0.132394-311    0.000000D+00    0.391081D+00
   0   296    0.000000D+00    0.355722-313    0.000000D+00    0.391081D+00
   0   297    0.000000D+00    0.951104-315    0.000000D+00    0.391081D+00
   0   298    0.000000D+00    0.253061-316    0.000000D+00    0.391081D+00
   0   299    0.000000D+00    0.670037-318    0.000000D+00    0.391081D+00
   0   300    0.000000D+00    0.176530-319    0.000000D+00    0.391081D+00
   0   301    0.000000D+00    0.464422-321    0.000000D+00    0.391081D+00
   0   302    0.000000D+00    0.988131-323    0.000000D+00    0.391081D+00
   0   303    0.000000D+00    0.000000D+00    0.000000D+00    0.391081D+00
   0   304    0.000000D+00    0.000000D+00    0.000000D+00    0.391081D+00
   0   305    0.000000D+00    0.000000D+00    0.000000D+00    0.391081D+00
   0   306    0.000000D+00    0.000000D+00    0.000000D+00    0.391081D+00
   0   307    0.000000D+00    0.000000D+00    0.000000D+00    0.391081D+00
   0   308    0.000000D+00    0.000000D+00    0.000000D+00    0.391081D+00
   0   309    0.000000D+00    0.000000D+00    0.000000D+00    0.391081D+00
   0   310    0.000000D+00    0.000000D+00    0.000000D+00    0.391081D+00
   0   311    0.000000D+00    0.000000D+00    0.000000D+00    0.391081D+00
   0   312    0.000000D+00    0.000000D+00    0.000000D+00    0.391081D+00
   0   313    0.000000D+00    0.000000D+00    0.000000D+00    0.391081D+00
   0   314    0.000000D+00    0.000000D+00    0.000000D+00    0.391081D+00
   0   315    0.000000D+00    0.000000D+00    0.000000D+00    0.391081D+00
   0   316    0.000000D+00    0.000000D+00    0.000000D+00    0.391081D+00
   0   317    0.000000D+00    0.000000D+00    0.000000D+00    0.391081D+00
   0   318    0.000000D+00    0.000000D+00    0.000000D+00    0.391081D+00
   0   319    0.000000D+00    0.000000D+00    0.000000D+00    0.391081D+00
   0   320    0.000000D+00    0.000000D+00    0.000000D+00    0.391081D+00
   0   321    0.000000D+00    0.000000D+00    0.000000D+00    0.391081D+00
   0   322    0.000000D+00    0.000000D+00    0.000000D+00    0.391081D+00
   0   323    0.000000D+00    0.000000D+00    0.000000D+00    0.391081D+00
   0   324    0.000000D+00    0.000000D+00    0.000000D+00    0.391081D+00
   0   325    0.000000D+00    0.000000D+00    0.000000D+00    0.391081D+00
   0   326    0.000000D+00    0.000000D+00    0.000000D+00    0.391081D+00
   0   327    0.000000D+00    0.000000D+00    0.000000D+00    0.391081D+00
   0   328    0.000000D+00    0.000000D+00    0.000000D+00    0.391081D+00
   0   329    0.000000D+00    0.000000D+00    0.000000D+00    0.391081D+00
   0   330    0.000000D+00    0.000000D+00    0.000000D+00    0.391081D+00
   0   331    0.000000D+00    0.000000D+00    0.000000D+00    0.391081D+00
   0   332    0.000000D+00    0.000000D+00    0.000000D+00    0.391081D+00
   0   333    0.000000D+00    0.000000D+00    0.000000D+00    0.391081D+00
   0   334    0.000000D+00    0.000000D+00    0.000000D+00    0.391081D+00
   0   335    0.000000D+00    0.000000D+00    0.000000D+00    0.391081D+00
   0   336    0.000000D+00    0.000000D+00    0.000000D+00    0.391081D+00
   0   337    0.000000D+00    0.000000D+00    0.000000D+00    0.391081D+00
   0   338    0.000000D+00    0.000000D+00    0.000000D+00    0.391081D+00
   0   339    0.000000D+00    0.000000D+00    0.000000D+00    0.391081D+00
   0   340    0.000000D+00    0.000000D+00    0.000000D+00    0.391081D+00
   0   341    0.000000D+00    0.000000D+00    0.000000D+00    0.391081D+00
   0   342    0.000000D+00    0.000000D+00    0.000000D+00    0.391081D+00
   0   343    0.000000D+00    0.000000D+00    0.000000D+00    0.391081D+00
   0   344    0.000000D+00    0.000000D+00    0.000000D+00    0.391081D+00
   0   345    0.000000D+00    0.000000D+00    0.000000D+00    0.391081D+00
   0   346    0.000000D+00    0.000000D+00    0.000000D+00    0.391081D+00
   0   347    0.000000D+00    0.000000D+00    0.000000D+00    0.391081D+00
   0   348    0.000000D+00    0.000000D+00    0.000000D+00    0.391081D+00
   0   349    0.000000D+00    0.000000D+00    0.000000D+00    0.391081D+00
   0   350    0.000000D+00    0.000000D+00    0.000000D+00    0.391081D+00
   0   351    0.000000D+00    0.000000D+00    0.000000D+00    0.391081D+00
   0   352    0.000000D+00    0.000000D+00    0.000000D+00    0.391081D+00
   0   353    0.000000D+00    0.000000D+00    0.000000D+00    0.391081D+00
   0   354    0.000000D+00    0.000000D+00    0.000000D+00    0.391081D+00
   0   355    0.000000D+00    0.000000D+00    0.000000D+00    0.391081D+00
   0   356    0.000000D+00    0.000000D+00    0.000000D+00    0.391081D+00
   0   357    0.000000D+00    0.000000D+00    0.000000D+00    0.391081D+00
   0   358    0.000000D+00    0.000000D+00    0.000000D+00    0.391081D+00
   0   359    0.000000D+00    0.000000D+00    0.000000D+00    0.391081D+00
   0   360    0.000000D+00    0.000000D+00    0.000000D+00    0.391081D+00
   0   361    0.000000D+00    0.000000D+00    0.000000D+00    0.391081D+00
   0   362    0.000000D+00    0.000000D+00    0.000000D+00    0.391081D+00
   0   363    0.000000D+00    0.000000D+00    0.000000D+00    0.391081D+00
   0   364    0.000000D+00    0.000000D+00    0.000000D+00    0.391081D+00
   0   365    0.000000D+00    0.000000D+00    0.000000D+00    0.391081D+00
   0   366    0.000000D+00    0.000000D+00    0.000000D+00    0.391081D+00
   0   367    0.000000D+00    0.000000D+00    0.000000D+00    0.391081D+00
   0   368    0.000000D+00    0.000000D+00    0.000000D+00    0.391081D+00
   0   369    0.000000D+00    0.000000D+00    0.000000D+00    0.391081D+00
   0   370    0.000000D+00    0.000000D+00    0.000000D+00    0.391081D+00
   0   371    0.000000D+00    0.000000D+00    0.000000D+00    0.391081D+00
   0   372    0.000000D+00    0.000000D+00    0.000000D+00    0.391081D+00
   0   373    0.000000D+00    0.000000D+00    0.000000D+00    0.391081D+00
   0   374    0.000000D+00    0.000000D+00    0.000000D+00    0.391081D+00
   0   375    0.000000D+00    0.000000D+00    0.000000D+00    0.391081D+00
   0   376    0.000000D+00    0.000000D+00    0.000000D+00    0.391081D+00
   0   377    0.000000D+00    0.000000D+00    0.000000D+00    0.391081D+00
   0   378    0.000000D+00    0.000000D+00    0.000000D+00    0.391081D+00
   0   379    0.000000D+00    0.000000D+00    0.000000D+00    0.391081D+00
   0   380    0.000000D+00    0.000000D+00    0.000000D+00    0.391081D+00
   0   381    0.000000D+00    0.000000D+00    0.000000D+00    0.391081D+00
   0   382    0.000000D+00    0.000000D+00    0.000000D+00    0.391081D+00
   0   383    0.000000D+00    0.000000D+00    0.000000D+00    0.391081D+00
   0   384    0.000000D+00    0.000000D+00    0.000000D+00    0.391081D+00
   0   385    0.000000D+00    0.000000D+00    0.000000D+00    0.391081D+00
   0   386    0.000000D+00    0.000000D+00    0.000000D+00    0.391081D+00
   0   387    0.000000D+00    0.000000D+00    0.000000D+00    0.391081D+00
   0   388    0.000000D+00    0.000000D+00    0.000000D+00    0.391081D+00
   0   389    0.000000D+00    0.000000D+00    0.000000D+00    0.391081D+00
   0   390    0.000000D+00    0.000000D+00    0.000000D+00    0.391081D+00
   0   391    0.000000D+00    0.000000D+00    0.000000D+00    0.391081D+00
   0   392    0.000000D+00    0.000000D+00    0.000000D+00    0.391081D+00
   0   393    0.000000D+00    0.000000D+00    0.000000D+00    0.391081D+00
   0   394    0.000000D+00    0.000000D+00    0.000000D+00    0.391081D+00
   0   395    0.000000D+00    0.000000D+00    0.000000D+00    0.391081D+00
   0   396    0.000000D+00    0.000000D+00    0.000000D+00    0.391081D+00
   0   397    0.000000D+00    0.000000D+00    0.000000D+00    0.391081D+00