variables =  "IG"  "JG"  "PHI"  "Temp."  "Latent_heat"  "mm"
ZONE  I=  401  J=  101
   0     0    0.100000D+01    0.975501D+00    0.000000D+00    0.222310D+00
   0     1    0.100000D+01    0.975501D+00    0.000000D+00    0.222310D+00
   0     2    0.100000D+01    0.975902D+00    0.000000D+00    0.221837D+00
   0     3    0.100000D+01    0.976702D+00    0.000000D+00    0.220888D+00
   0     4    0.100000D+01    0.977896D+00    0.000000D+00    0.219459D+00
   0     5    0.100000D+01    0.979475D+00    0.000000D+00    0.217542D+00
   0     6    0.100000D+01    0.981429D+00    0.000000D+00    0.215128D+00
   0     7    0.100000D+01    0.983746D+00    0.000000D+00    0.212205D+00
   0     8    0.100000D+01    0.986409D+00    0.000000D+00    0.208759D+00
   0     9    0.100000D+01    0.989401D+00    0.000000D+00    0.204777D+00
   0    10    0.100000D+01    0.992703D+00    0.000000D+00    0.200241D+00
   0    11    0.100000D+01    0.996293D+00    0.000000D+00    0.195138D+00
   0    12    0.100000D+01    0.100015D+01    0.000000D+00    0.189451D+00
   0    13    0.100000D+01    0.100424D+01    0.000000D+00    0.183167D+00
   0    14    0.100000D+01    0.100855D+01    0.000000D+00    0.176277D+00
   0    15    0.100000D+01    0.101305D+01    0.000000D+00    0.168773D+00
   0    16    0.100000D+01    0.101770D+01    0.000000D+00    0.160659D+00
   0    17    0.100000D+01    0.102248D+01    0.000000D+00    0.151941D+00
   0    18    0.100000D+01    0.102737D+01    0.000000D+00    0.142641D+00
   0    19    0.100000D+01    0.103232D+01    0.000000D+00    0.132788D+00
   0    20    0.100000D+01    0.103731D+01    0.000000D+00    0.122429D+00
   0    21    0.100000D+01    0.104232D+01   -0.145853D-10    0.111623D+00
   0    22    0.100000D+01    0.104731D+01   -0.204194D-09    0.100444D+00
   0    23    0.100000D+01    0.105225D+01    0.116682D-09    0.889825D-01
   0    24    0.100000D+01    0.105712D+01   -0.455061D-08    0.773386D-01
   0    25    0.100000D+01    0.106189D+01    0.345817D-07    0.656230D-01
   0    26    0.100000D+01    0.106654D+01   -0.572545D-06    0.539520D-01
   0    27    0.100000D+01    0.107104D+01    0.563327D-05    0.424432D-01
   0    28    0.100000D+01    0.107538D+01    0.428634D-04    0.312111D-01
   0    29    0.999999D+00    0.107952D+01    0.419693D-03    0.203630D-01
   0    30    0.999992D+00    0.108345D+01   -0.372994D-02    0.999536D-02
   0    31    0.999940D+00    0.108716D+01    0.138445D-01    0.199166D-03
   0    32    0.999540D+00    0.109060D+01   -0.206608D+00   -0.891326D-02
   0    33    0.996530D+00    0.109371D+01   -0.967819D+00   -0.171357D-01
   0    34    0.973782D+00    0.109647D+01    0.879199D+01   -0.240371D-01
   0    35    0.816076D+00    0.109964D+01    0.668983D+02   -0.310317D-01
   0    36    0.149980D+00    0.110112D+01    0.765184D+01   -0.390146D-01
   0    37    0.206710D-01    0.110210D+01   -0.729120D+00   -0.390652D-01
   0    38    0.278654D-02    0.110275D+01    0.145094D+01   -0.406817D-01
   0    39    0.433646D-03    0.110274D+01   -0.145505D+00   -0.406700D-01
   0    40    0.116037D-03    0.110233D+01    0.152115D-01   -0.396229D-01
   0    41    0.717470D-04    0.110148D+01    0.511350D-01   -0.374071D-01
   0    42    0.669883D-04    0.110021D+01   -0.102855D-01   -0.341211D-01
   0    43    0.720684D-04    0.109860D+01    0.336115D-01   -0.299301D-01
   0    44    0.810566D-04    0.109677D+01    0.174639D-01   -0.251450D-01
   0    45    0.101223D-03    0.109493D+01   -0.480851D-01   -0.203187D-01
   0    46    0.152680D-03    0.109354D+01    0.526597D-01   -0.166341D-01
   0    47    0.256185D-03    0.109319D+01    0.176517D+00   -0.157179D-01
   0    48    0.401974D-03    0.109439D+01    0.105560D+00   -0.189073D-01
   0    49    0.490551D-03    0.109678D+01   -0.285868D+00   -0.251795D-01
   0    50    0.508026D-03    0.109965D+01   -0.101630D+00   -0.326859D-01
   0    51    0.491051D-03    0.110238D+01    0.170243D+00   -0.397484D-01
   0    52    0.460014D-03    0.110474D+01    0.270147D+00   -0.458296D-01
   0    53    0.437850D-03    0.110644D+01   -0.127788D+00   -0.501589D-01
   0    54    0.424216D-03    0.110771D+01   -0.229077D+00   -0.534466D-01
   0    55    0.411101D-03    0.110839D+01   -0.269745D+00   -0.551593D-01
   0    56    0.400303D-03    0.110883D+01   -0.255389D-01   -0.562353D-01
   0    57    0.391435D-03    0.110905D+01   -0.723702D-01   -0.567803D-01
   0    58    0.391458D-03    0.110914D+01   -0.187375D+00   -0.570169D-01
   0    59    0.388248D-03    0.110921D+01   -0.211948D+00   -0.571884D-01
   0    60    0.385553D-03    0.110918D+01    0.183938D+00   -0.571302D-01
   0    61    0.392055D-03    0.110905D+01   -0.202727D+00   -0.567992D-01
   0    62    0.392958D-03    0.110889D+01   -0.136398D+00   -0.563985D-01
   0    63    0.395965D-03    0.110892D+01   -0.201520D+00   -0.564590D-01
   0    64    0.399745D-03    0.110888D+01    0.116139D+00   -0.563856D-01
   0    65    0.394805D-03    0.110880D+01    0.289466D+00   -0.561359D-01
   0    66    0.394094D-03    0.110874D+01   -0.184659D+00   -0.560242D-01
   0    67    0.403550D-03    0.110874D+01    0.263591D-01   -0.559809D-01
   0    68    0.411258D-03    0.110867D+01   -0.143408D+00   -0.558167D-01
   0    69    0.409768D-03    0.110856D+01   -0.103135D+00   -0.555727D-01
   0    70    0.410121D-03    0.110852D+01   -0.979052D-01   -0.554326D-01
   0    71    0.417775D-03    0.110832D+01   -0.344497D-01   -0.549259D-01
   0    72    0.416809D-03    0.110811D+01    0.943593D-01   -0.543953D-01
   0    73    0.421344D-03    0.110798D+01   -0.164680D+00   -0.540591D-01
   0    74    0.417311D-03    0.110780D+01    0.272873D+00   -0.536410D-01
   0    75    0.426615D-03    0.110767D+01   -0.188527D+00   -0.532821D-01
   0    76    0.430321D-03    0.110736D+01    0.217724D-01   -0.524877D-01
   0    77    0.435410D-03    0.110711D+01    0.275394D+00   -0.518450D-01
   0    78    0.442356D-03    0.110692D+01    0.283548D+00   -0.513488D-01
   0    79    0.444569D-03    0.110654D+01    0.246461D+00   -0.503835D-01
   0    80    0.449388D-03    0.110609D+01    0.204035D+00   -0.492537D-01
   0    81    0.460950D-03    0.110572D+01    0.308563D+00   -0.483051D-01
   0    82    0.469680D-03    0.110531D+01   -0.328976D+00   -0.472769D-01
   0    83    0.468060D-03    0.110502D+01   -0.247316D+00   -0.465403D-01
   0    84    0.473039D-03    0.110476D+01   -0.792687D-01   -0.458312D-01
   0    85    0.492300D-03    0.110439D+01   -0.213364D+00   -0.449085D-01
   0    86    0.481369D-03    0.110391D+01    0.291813D+00   -0.436369D-01
   0    87    0.495860D-03    0.110349D+01   -0.307505D+00   -0.426220D-01
   0    88    0.497335D-03    0.110295D+01    0.247207D+00   -0.412340D-01
   0    89    0.502695D-03    0.110251D+01    0.568670D-01   -0.400412D-01
   0    90    0.508307D-03    0.110212D+01   -0.813167D-01   -0.390776D-01
   0    91    0.522532D-03    0.110170D+01    0.183641D+00   -0.379955D-01
   0    92    0.523111D-03    0.110121D+01   -0.263976D+00   -0.367068D-01
   0    93    0.527693D-03    0.110069D+01   -0.199738D+00   -0.353751D-01
   0    94    0.533844D-03    0.110028D+01   -0.131129D+00   -0.342610D-01
   0    95    0.536481D-03    0.109980D+01    0.181255D+00   -0.330407D-01
   0    96    0.547917D-03    0.109925D+01   -0.331886D+00   -0.316417D-01
   0    97    0.556071D-03    0.109875D+01   -0.238263D+00   -0.303285D-01
   0    98    0.561619D-03    0.109813D+01   -0.367632D+00   -0.286544D-01
   0    99    0.577129D-03    0.109759D+01    0.238860D+00   -0.272600D-01
   0   100    0.590534D-03    0.109691D+01   -0.254513D+00   -0.254944D-01
   0   101    0.594914D-03    0.109625D+01   -0.354117D+00   -0.237392D-01
   0   102    0.608574D-03    0.109573D+01   -0.147028D+00   -0.223515D-01
   0   103    0.609609D-03    0.109513D+01    0.631257D-01   -0.208144D-01
   0   104    0.620158D-03    0.109447D+01   -0.309264D+00   -0.190534D-01
   0   105    0.635960D-03    0.109386D+01    0.279751D-01   -0.175199D-01
   0   106    0.645814D-03    0.109314D+01   -0.263921D-01   -0.155929D-01
   0   107    0.648904D-03    0.109250D+01   -0.343954D+00   -0.138383D-01
   0   108    0.667491D-03    0.109179D+01   -0.426811D+00   -0.120786D-01
   0   109    0.678167D-03    0.109116D+01    0.218994D+00   -0.103942D-01
   0   110    0.681618D-03    0.109037D+01   -0.264901D+00   -0.821671D-02
   0   111    0.695933D-03    0.108961D+01    0.373814D+00   -0.627111D-02
   0   112    0.724935D-03    0.108880D+01    0.184639D-01   -0.415987D-02
   0   113    0.727655D-03    0.108802D+01    0.456702D+00   -0.208749D-02
   0   114    0.748388D-03    0.108719D+01    0.514092D-01    0.138213D-03
   0   115    0.760372D-03    0.108621D+01    0.149957D-01    0.273015D-02
   0   116    0.779996D-03    0.108514D+01   -0.207804D+00    0.556380D-02
   0   117    0.791994D-03    0.108419D+01   -0.485612D-01    0.810429D-02
   0   118    0.810131D-03    0.108325D+01    0.440050D+00    0.105546D-01
   0   119    0.847519D-03    0.108238D+01   -0.419355D+00    0.128399D-01
   0   120    0.880896D-03    0.108133D+01    0.507167D+00    0.156027D-01
   0   121    0.897443D-03    0.108026D+01    0.106451D+00    0.184363D-01
   0   122    0.924477D-03    0.107930D+01    0.108268D+00    0.209790D-01
   0   123    0.961474D-03    0.107839D+01    0.264811D+00    0.233860D-01
   0   124    0.987065D-03    0.107747D+01    0.161837D+00    0.258233D-01
   0   125    0.999135D-03    0.107659D+01   -0.188500D+00    0.280629D-01
   0   126    0.102774D-02    0.107569D+01   -0.375540D+00    0.303849D-01
   0   127    0.104819D-02    0.107469D+01   -0.267578D+00    0.329720D-01
   0   128    0.109329D-02    0.107359D+01   -0.625278D+00    0.359010D-01
   0   129    0.113707D-02    0.107268D+01   -0.232263D+00    0.382634D-01
   0   130    0.116011D-02    0.107162D+01    0.740517D-01    0.410590D-01
   0   131    0.123077D-02    0.107064D+01   -0.305233D+00    0.434813D-01
   0   132    0.127473D-02    0.106946D+01    0.435747D+00    0.465615D-01
   0   133    0.133783D-02    0.106815D+01    0.255770D-01    0.499586D-01
   0   134    0.138282D-02    0.106701D+01    0.153413D+00    0.528035D-01
   0   135    0.149445D-02    0.106586D+01    0.583719D+00    0.556359D-01
   0   136    0.153005D-02    0.106487D+01   -0.668664D+00    0.582846D-01
   0   137    0.154014D-02    0.106407D+01    0.354317D+00    0.601463D-01
   0   138    0.161834D-02    0.106370D+01   -0.214723D+00    0.610822D-01
   0   139    0.165362D-02    0.106369D+01   -0.895329D+00    0.611737D-01
   0   140    0.168666D-02    0.106355D+01   -0.101683D+01    0.616013D-01
   0   141    0.174482D-02    0.106338D+01   -0.475932D+00    0.619588D-01
   0   142    0.181383D-02    0.106318D+01   -0.398749D+00    0.623690D-01
   0   143    0.190453D-02    0.106350D+01    0.438410D+00    0.617335D-01
   0   144    0.198073D-02    0.106394D+01    0.398954D+00    0.604410D-01
   0   145    0.204286D-02    0.106465D+01   -0.435238D+00    0.586704D-01
   0   146    0.211537D-02    0.106546D+01    0.767303D+00    0.565217D-01
   0   147    0.216789D-02    0.106603D+01   -0.485729D+00    0.552938D-01
   0   148    0.223722D-02    0.106728D+01    0.423570D+00    0.520920D-01
   0   149    0.229165D-02    0.106881D+01    0.141610D+01    0.481109D-01
   0   150    0.234862D-02    0.107042D+01    0.118362D+01    0.439809D-01
   0   151    0.242352D-02    0.107230D+01    0.114297D+01    0.392081D-01
   0   152    0.250540D-02    0.107403D+01    0.180533D+01    0.347600D-01
   0   153    0.253503D-02    0.107551D+01   -0.125334D+01    0.306864D-01
   0   154    0.259844D-02    0.107725D+01   -0.893789D+00    0.261613D-01
   0   155    0.251130D-02    0.107871D+01    0.885446D+00    0.224749D-01
   0   156    0.250654D-02    0.107995D+01   -0.144907D+01    0.191652D-01
   0   157    0.253521D-02    0.108153D+01   -0.118559D+01    0.149902D-01
   0   158    0.254675D-02    0.108304D+01    0.850711D+00    0.109640D-01
   0   159    0.266426D-02    0.108497D+01    0.869980D+00    0.589412D-02
   0   160    0.271168D-02    0.108722D+01   -0.494394D+00    0.263935D-04
   0   161    0.272166D-02    0.108904D+01    0.981741D+00   -0.488509D-02
   0   162    0.276585D-02    0.109105D+01    0.788311D+00   -0.100312D-01
   0   163    0.272832D-02    0.109268D+01    0.191841D+01   -0.145993D-01
   0   164    0.272881D-02    0.109412D+01   -0.231510D+00   -0.181753D-01
   0   165    0.277509D-02    0.109562D+01    0.537713D+00   -0.220716D-01
   0   166    0.280137D-02    0.109758D+01    0.546714D+00   -0.272166D-01
   0   167    0.284558D-02    0.109891D+01   -0.120886D+01   -0.309113D-01
   0   168    0.283024D-02    0.110017D+01    0.151696D+01   -0.341360D-01
   0   169    0.287495D-02    0.110132D+01    0.940639D+00   -0.370973D-01
   0   170    0.289603D-02    0.110212D+01    0.151621D+01   -0.389182D-01
   0   171    0.288481D-02    0.110279D+01   -0.192608D+01   -0.408731D-01
   0   172    0.288383D-02    0.110386D+01   -0.820326D+00   -0.434421D-01
   0   173    0.294726D-02    0.110495D+01   -0.111102D+01   -0.464793D-01
   0   174    0.297857D-02    0.110547D+01   -0.211675D+01   -0.475817D-01
   0   175    0.301361D-02    0.110609D+01    0.135533D+01   -0.491562D-01
   0   176    0.299586D-02    0.110633D+01    0.174005D+01   -0.496776D-01
   0   177    0.297557D-02    0.110677D+01    0.750067D+00   -0.511258D-01
   0   178    0.302031D-02    0.110745D+01    0.125690D+01   -0.527717D-01
   0   179    0.308149D-02    0.110736D+01   -0.338941D+00   -0.525160D-01
   0   180    0.315827D-02    0.110768D+01   -0.717554D+00   -0.535079D-01
   0   181    0.318955D-02    0.110786D+01   -0.926871D+00   -0.540049D-01
   0   182    0.324436D-02    0.110843D+01    0.130633D+01   -0.553725D-01
   0   183    0.321871D-02    0.110840D+01    0.124824D+01   -0.549622D-01
   0   184    0.326555D-02    0.110844D+01    0.641239D+00   -0.551579D-01
   0   185    0.329443D-02    0.110819D+01    0.650871D+00   -0.544632D-01
   0   186    0.334908D-02    0.110846D+01    0.108764D+01   -0.553271D-01
   0   187    0.333384D-02    0.110846D+01    0.327848D+00   -0.551949D-01
   0   188    0.343872D-02    0.110808D+01    0.307926D+00   -0.543377D-01
   0   189    0.345126D-02    0.110815D+01   -0.141129D+01   -0.546259D-01
   0   190    0.351875D-02    0.110780D+01   -0.274157D+00   -0.535797D-01
   0   191    0.354038D-02    0.110780D+01   -0.838276D+00   -0.535150D-01
   0   192    0.358626D-02    0.110721D+01   -0.132897D+01   -0.520846D-01
   0   193    0.365572D-02    0.110704D+01    0.169195D+00   -0.515527D-01
   0   194    0.367705D-02    0.110671D+01    0.199711D+01   -0.509917D-01
   0   195    0.378409D-02    0.110599D+01   -0.132489D+01   -0.488827D-01
   0   196    0.379538D-02    0.110553D+01   -0.194370D+01   -0.477624D-01
   0   197    0.385485D-02    0.110471D+01    0.546257D+00   -0.458489D-01
   0   198    0.392677D-02    0.110401D+01   -0.149863D+01   -0.439681D-01
   0   199    0.392552D-02    0.110355D+01   -0.174612D+01   -0.424965D-01
   0   200    0.400180D-02    0.110313D+01    0.266124D-01   -0.418685D-01
   0   201    0.409616D-02    0.110216D+01    0.266517D+01   -0.391140D-01
   0   202    0.414639D-02    0.110108D+01    0.119406D+01   -0.363719D-01
   0   203    0.430610D-02    0.110026D+01    0.193369D+01   -0.343743D-01
   0   204    0.443302D-02    0.109996D+01    0.243828D+01   -0.333618D-01
   0   205    0.445694D-02    0.109874D+01    0.446533D+00   -0.303074D-01
   0   206    0.455364D-02    0.109783D+01   -0.108174D+01   -0.277555D-01
   0   207    0.465866D-02    0.109648D+01   -0.312863D+01   -0.241750D-01
   0   208    0.481501D-02    0.109533D+01    0.275739D+00   -0.212581D-01
   0   209    0.490324D-02    0.109441D+01   -0.660327D+00   -0.191625D-01
   0   210    0.497907D-02    0.109399D+01    0.853938D+00   -0.182608D-01
   0   211    0.512309D-02    0.109301D+01   -0.268181D+01   -0.150055D-01
   0   212    0.524234D-02    0.109134D+01   -0.142378D+00   -0.107883D-01
   0   213    0.537272D-02    0.109007D+01    0.293052D+01   -0.761505D-02
   0   214    0.555195D-02    0.108872D+01    0.774653D+00   -0.364052D-02
   0   215    0.569133D-02    0.108703D+01    0.351542D+01    0.709213D-03
   0   216    0.614768D-02    0.108535D+01   -0.507067D+00    0.479512D-02
   0   217    0.633302D-02    0.108374D+01   -0.801396D+00    0.940336D-02
   0   218    0.646099D-02    0.108200D+01    0.262238D+00    0.137185D-01
   0   219    0.674943D-02    0.108020D+01    0.780274D+00    0.182127D-01
   0   220    0.708856D-02    0.107871D+01   -0.440438D+01    0.226774D-01
   0   221    0.738722D-02    0.107697D+01    0.106576D+01    0.267293D-01
   0   222    0.765937D-02    0.107609D+01   -0.453890D+01    0.289159D-01
   0   223    0.777578D-02    0.107469D+01   -0.311751D+01    0.335118D-01
   0   224    0.817253D-02    0.107373D+01    0.725320D+00    0.354159D-01
   0   225    0.838139D-02    0.107302D+01   -0.258975D+00    0.369753D-01
   0   226    0.882048D-02    0.107225D+01   -0.483094D+01    0.396674D-01
   0   227    0.920362D-02    0.106992D+01    0.357827D+01    0.451220D-01
   0   228    0.984337D-02    0.106907D+01    0.171823D+01    0.477309D-01
   0   229    0.104680D-01    0.106648D+01   -0.550940D+01    0.540566D-01
   0   230    0.110548D-01    0.106562D+01   -0.417486D-01    0.568446D-01
   0   231    0.115756D-01    0.106409D+01   -0.452368D+01    0.604121D-01
   0   232    0.121828D-01    0.106329D+01   -0.337573D+01    0.628256D-01
   0   233    0.130363D-01    0.106308D+01   -0.642128D+01    0.620372D-01
   0   234    0.139617D-01    0.106331D+01   -0.785084D+01    0.623857D-01
   0   235    0.148531D-01    0.106300D+01   -0.121099D+01    0.631800D-01
   0   236    0.160145D-01    0.106457D+01    0.303325D+01    0.585968D-01
   0   237    0.167138D-01    0.106605D+01   -0.154048D+01    0.556317D-01
   0   238    0.173977D-01    0.106665D+01    0.180082D+01    0.537276D-01
   0   239    0.180281D-01    0.106749D+01   -0.961419D+01    0.521095D-01
   0   240    0.184399D-01    0.107034D+01   -0.346612D+01    0.447870D-01
   0   241    0.186337D-01    0.107213D+01    0.543097D+01    0.396720D-01
   0   242    0.192357D-01    0.107409D+01    0.102242D+01    0.349917D-01
   0   243    0.193907D-01    0.107608D+01   -0.442566D+01    0.289786D-01
   0   244    0.202203D-01    0.107796D+01    0.105613D+02    0.240326D-01
   0   245    0.207937D-01    0.108104D+01   -0.736328D+01    0.170031D-01
   0   246    0.210528D-01    0.108286D+01    0.234096D+01    0.109674D-01
   0   247    0.212277D-01    0.108537D+01   -0.116945D+00    0.604912D-02
   0   248    0.217549D-01    0.108668D+01    0.319377D+00    0.816601D-03
   0   249    0.223373D-01    0.109035D+01    0.120949D+02   -0.857748D-02
   0   250    0.225992D-01    0.109106D+01    0.796125D+01   -0.947886D-02
   0   251    0.232787D-01    0.109352D+01    0.871895D+01   -0.175143D-01
   0   252    0.233498D-01    0.109604D+01   -0.529744D+01   -0.240004D-01
   0   253    0.236540D-01    0.109842D+01   -0.125076D+02   -0.283084D-01
   0   254    0.242219D-01    0.109958D+01    0.136164D+02   -0.340478D-01
   0   255    0.248336D-01    0.110075D+01    0.125521D+02   -0.365418D-01
   0   256    0.249654D-01    0.110427D+01    0.771792D+01   -0.435148D-01
   0   257    0.256509D-01    0.110497D+01   -0.132347D+02   -0.477131D-01
   0   258    0.256189D-01    0.110646D+01    0.161578D+02   -0.501498D-01
   0   259    0.258825D-01    0.110765D+01   -0.777518D+00   -0.536119D-01
   0   260    0.268902D-01    0.110697D+01    0.216574D+01   -0.526576D-01
   0   261    0.270398D-01    0.110687D+01    0.734586D+01   -0.520935D-01
   0   262    0.273751D-01    0.110832D+01    0.139294D+01   -0.546957D-01
   0   263    0.278469D-01    0.110925D+01   -0.642406D+01   -0.575945D-01
   0   264    0.279521D-01    0.110935D+01    0.105301D+02   -0.588774D-01
   0   265    0.285820D-01    0.110961D+01   -0.107993D+02   -0.580220D-01
   0   266    0.293024D-01    0.110888D+01   -0.255889D+01   -0.550748D-01
   0   267    0.299854D-01    0.111029D+01   -0.182073D+02   -0.592859D-01
   0   268    0.304157D-01    0.110872D+01    0.192282D+02   -0.551964D-01
   0   269    0.314378D-01    0.110621D+01   -0.221188D+02   -0.512176D-01
   0   270    0.325184D-01    0.110591D+01   -0.144869D+02   -0.466827D-01
   0   271    0.330615D-01    0.110609D+01    0.145181D+02   -0.482827D-01
   0   272    0.342193D-01    0.110390D+01    0.916435D+01   -0.438318D-01
   0   273    0.362754D-01    0.110167D+01   -0.168534D+02   -0.360587D-01
   0   274    0.377902D-01    0.109770D+01   -0.187535D+02   -0.288219D-01
   0   275    0.389547D-01    0.109863D+01    0.138137D+01   -0.318318D-01
   0   276    0.409841D-01    0.109738D+01   -0.194869D+02   -0.260886D-01
   0   277    0.418493D-01    0.109407D+01   -0.843328D+01   -0.163872D-01
   0   278    0.441314D-01    0.109210D+01   -0.246598D+02   -0.146968D-01
   0   279    0.460564D-01    0.109022D+01   -0.802867D+01   -0.728152D-02
   0   280    0.503765D-01    0.108691D+01    0.729819D+01    0.839253D-03
   0   281    0.541909D-01    0.108443D+01   -0.108252D+02    0.973188D-02
   0   282    0.573508D-01    0.108219D+01   -0.256683D+02    0.128496D-01
   0   283    0.614615D-01    0.108216D+01   -0.103600D+02    0.159241D-01
   0   284    0.671904D-01    0.107911D+01    0.453150D+01    0.202390D-01
   0   285    0.732920D-01    0.107668D+01   -0.454488D+01    0.303204D-01
   0   286    0.840490D-01    0.107572D+01   -0.198731D+02    0.287450D-01
   0   287    0.938577D-01    0.107348D+01   -0.391531D+02    0.364754D-01
   0   288    0.105959D+00    0.107546D+01    0.226894D+02    0.341458D-01
   0   289    0.122074D+00    0.107870D+01    0.381573D+02    0.256357D-01
   0   290    0.134448D+00    0.107844D+01   -0.982546D+02    0.199005D-01
   0   291    0.144567D+00    0.108554D+01    0.565872D+02    0.803583D-03
   0   292    0.157704D+00    0.108659D+01   -0.102930D+03   -0.200414D-02
   0   293    0.168653D+00    0.109187D+01   -0.297091D+02   -0.124403D-01
   0   294    0.182098D+00    0.109520D+01   -0.685135D+02   -0.174498D-01
   0   295    0.195672D+00    0.110437D+01    0.178733D+02   -0.425886D-01
   0   296    0.209636D+00    0.110760D+01    0.113381D+02   -0.558239D-01
   0   297    0.232658D+00    0.111453D+01   -0.112267D+03   -0.678064D-01
   0   298    0.256202D+00    0.111622D+01   -0.718446D+02   -0.721201D-01
   0   299    0.279174D+00    0.109450D+01   -0.908270D+02   -0.167565D-01
   0   300    0.260189D+00    0.102493D+01    0.492536D+02    0.149594D+00
   0   301    0.124767D+00    0.772129D+00    0.175968D+03    0.334721D+00
   0   302    0.365582D-01    0.437797D+00    0.687922D+02    0.375129D+00
   0   303    0.921995D-02    0.214242D+00    0.130032D+02    0.385234D+00
   0   304    0.218808D-02    0.969946D-01    0.320443D+01    0.388743D+00
   0   305    0.488522D-03    0.420591D-01    0.136963D+01    0.390120D+00
   0   306    0.109881D-03    0.177534D-01    0.203508D+00    0.390685D+00
   0   307    0.235955D-04    0.736960D-02    0.380308D-01    0.390918D+00
   0   308    0.498381D-05    0.302598D-02    0.823971D-02    0.391015D+00
   0   309    0.104748D-05    0.123300D-02    0.214793D-02    0.391054D+00
   0   310    0.215438D-06    0.499632D-03    0.557606D-03    0.391070D+00
   0   311    0.452870D-07    0.201624D-03    0.632179D-04    0.391077D+00
   0   312    0.922331D-08    0.811089D-04    0.145120D-04    0.391079D+00
   0   313    0.187155D-08    0.325482D-04    0.421090D-05    0.391080D+00
   0   314    0.378712D-09    0.130358D-04    0.695011D-06    0.391081D+00
   0   315    0.766453D-10    0.521266D-05    0.140359D-06    0.391081D+00
   0   316    0.153843D-10    0.208165D-05    0.313825D-07    0.391081D+00
   0   317    0.304830D-11    0.830378D-06    0.568971D-08    0.391081D+00
   0   318    0.611655D-12    0.330927D-06    0.167318D-08    0.391081D+00
   0   319    0.123749D-12    0.131776D-06    0.249016D-09    0.391081D+00
   0   320    0.244940D-13    0.524370D-07    0.436782D-10    0.391081D+00
   0   321    0.488729D-14    0.208533D-07    0.977774D-11    0.391081D+00
   0   322    0.970670D-15    0.828872D-08    0.205893D-11    0.391081D+00
   0   323    0.194270D-15    0.329308D-08    0.490201D-12    0.391081D+00
   0   324    0.381268D-16    0.130782D-08    0.607486D-13    0.391081D+00
   0   325    0.761046D-17    0.519213D-09    0.175653D-13    0.391081D+00
   0   326    0.150438D-17    0.206069D-09    0.241448D-14    0.391081D+00
   0   327    0.295224D-18    0.817645D-10    0.748581D-15    0.391081D+00
   0   328    0.584479D-19    0.324350D-10    0.146085D-15    0.391081D+00
   0   329    0.116191D-19    0.128638D-10    0.314125D-16    0.391081D+00
   0   330    0.228745D-20    0.510081D-11    0.547334D-17    0.391081D+00
   0   331    0.446378D-21    0.202223D-11    0.104570D-17    0.391081D+00
   0   332    0.892863D-22    0.801583D-12    0.226203D-18    0.391081D+00
   0   333    0.177679D-22    0.317686D-12    0.481810D-19    0.391081D+00
   0   334    0.349644D-23    0.125888D-12    0.718216D-20    0.391081D+00
   0   335    0.686755D-24    0.498785D-13    0.178087D-20    0.391081D+00
   0   336    0.131827D-24    0.197600D-13    0.381903D-21    0.391081D+00
   0   337    0.259679D-25    0.782733D-14    0.576692D-22    0.391081D+00
   0   338    0.512702D-26    0.310025D-14    0.104314D-22    0.391081D+00
   0   339    0.100057D-26    0.122784D-14    0.264817D-23    0.391081D+00
   0   340    0.196392D-27    0.486241D-15    0.555252D-24    0.391081D+00
   0   341    0.381622D-28    0.192546D-15    0.102421D-24    0.391081D+00
   0   342    0.756674D-29    0.762425D-16    0.149752D-25    0.391081D+00
   0   343    0.148096D-29    0.301885D-16    0.416138D-26    0.391081D+00
   0   344    0.288376D-30    0.119529D-16    0.830290D-27    0.391081D+00
   0   345    0.568881D-31    0.473260D-17    0.119429D-27    0.391081D+00
   0   346    0.111843D-31    0.187380D-17    0.248522D-28    0.391081D+00
   0   347    0.219277D-32    0.741902D-18    0.470878D-29    0.391081D+00
   0   348    0.426853D-33    0.293749D-18    0.742686D-30    0.391081D+00
   0   349    0.836052D-34    0.116309D-18    0.139683D-30    0.391081D+00
   0   350    0.163616D-34    0.460539D-19    0.319339D-31    0.391081D+00
   0   351    0.318165D-35    0.182362D-19    0.930665D-32    0.391081D+00
   0   352    0.615471D-36    0.722140D-20    0.156168D-32    0.391081D+00
   0   353    0.121177D-36    0.285977D-20    0.319961D-33    0.391081D+00
   0   354    0.237052D-37    0.113257D-20    0.428942D-34    0.391081D+00
   0   355    0.473187D-38    0.448571D-21    0.106441D-34    0.391081D+00
   0   356    0.911775D-39    0.177675D-21    0.190708D-35    0.391081D+00
   0   357    0.180598D-39    0.703812D-22    0.497754D-36    0.391081D+00
   0   358    0.350642D-40    0.278820D-22    0.102253D-36    0.391081D+00
   0   359    0.691725D-41    0.110467D-22    0.174369D-37    0.391081D+00
   0   360    0.134793D-41    0.437704D-23    0.331050D-38    0.391081D+00
   0   361    0.262277D-42    0.173450D-23    0.718762D-39    0.391081D+00
   0   362    0.516904D-43    0.687410D-24    0.125704D-39    0.391081D+00
   0   363    0.101964D-43    0.272462D-24    0.235204D-40    0.391081D+00
   0   364    0.196883D-44    0.108006D-24    0.441969D-41    0.391081D+00
   0   365    0.390836D-45    0.428195D-25    0.776454D-42    0.391081D+00
   0   366    0.746965D-46    0.169781D-25    0.155654D-42    0.391081D+00
   0   367    0.147918D-46    0.673274D-26    0.396760D-43    0.391081D+00
   0   368    0.295178D-47    0.267024D-26    0.630348D-44    0.391081D+00
   0   369    0.568060D-48    0.105917D-26    0.112202D-44    0.391081D+00
   0   370    0.111446D-48    0.420180D-27    0.237778D-45    0.391081D+00
   0   371    0.215314D-49    0.166711D-27    0.376383D-46    0.391081D+00
   0   372    0.417731D-50    0.661527D-28    0.123033D-46    0.391081D+00
   0   373    0.810997D-51    0.262535D-28    0.214750D-47    0.391081D+00
   0   374    0.156425D-51    0.104204D-28    0.314577D-48    0.391081D+00
   0   375    0.305326D-52    0.413649D-29    0.856010D-49    0.391081D+00
   0   376    0.609232D-53    0.164223D-29    0.110038D-49    0.391081D+00
   0   377    0.118556D-53    0.652063D-30    0.262938D-50    0.391081D+00
   0   378    0.229390D-54    0.258938D-30    0.497323D-51    0.391081D+00
   0   379    0.440266D-55    0.102837D-30    0.126288D-51    0.391081D+00
   0   380    0.851852D-56    0.408463D-31    0.193807D-52    0.391081D+00
   0   381    0.167399D-56    0.162256D-31    0.437355D-53    0.391081D+00
   0   382    0.328263D-57    0.644605D-32    0.884612D-54    0.391081D+00
   0   383    0.661172D-58    0.256112D-32    0.133045D-54    0.391081D+00
   0   384    0.129924D-58    0.101767D-32    0.284054D-55    0.391081D+00
   0   385    0.252551D-59    0.404409D-33    0.545429D-56    0.391081D+00
   0   386    0.495895D-60    0.160721D-33    0.113284D-56    0.391081D+00
   0   387    0.962146D-61    0.638793D-34    0.166114D-57    0.391081D+00
   0   388    0.184180D-61    0.253910D-34    0.484541D-58    0.391081D+00
   0   389    0.352739D-62    0.100933D-34    0.705508D-59    0.391081D+00
   0   390    0.701633D-63    0.401249D-35    0.184774D-59    0.391081D+00
   0   391    0.135470D-63    0.159523D-35    0.373261D-60    0.391081D+00
   0   392    0.262116D-64    0.634244D-36    0.686911D-61    0.391081D+00
   0   393    0.513358D-65    0.252181D-36    0.981039D-62    0.391081D+00
   0   394    0.993208D-66    0.100274D-36    0.281916D-62    0.391081D+00
   0   395    0.191322D-66    0.398703D-37    0.471062D-63    0.391081D+00
   0   396    0.375019D-67    0.158466D-37    0.833242D-64    0.391081D+00
   0   397    0.728067D-68    0.628085D-38    0.177744D-64    0.391081D+00