variables =  "IG"  "JG"  "PHI"  "Temp."  "Latent_heat"  "mm"
ZONE  I=  401  J=  101
   0     0    0.100000D+01    0.242485D+00   -0.404383D-04    0.457084D+00
   0     1    0.100000D+01    0.242485D+00    0.296015D-03    0.457084D+00
   0     2    0.999999D+00    0.261666D+00   -0.884182D-04    0.455891D+00
   0     3    0.999996D+00    0.299278D+00    0.206872D-02    0.453356D+00
   0     4    0.999986D+00    0.353818D+00    0.104084D-01    0.449135D+00
   0     5    0.999956D+00    0.423034D+00    0.207553D-01    0.442583D+00
   0     6    0.999853D+00    0.503971D+00    0.277274D-01    0.432506D+00
   0     7    0.999524D+00    0.593092D+00    0.419281D+00    0.416579D+00
   0     8    0.998472D+00    0.686433D+00    0.174931D+01    0.389857D+00
   0     9    0.995132D+00    0.779788D+00    0.402832D+01    0.340482D+00
   0    10    0.985011D+00    0.868768D+00   -0.240214D+01    0.238138D+00
   0    11    0.956196D+00    0.947968D+00    0.158725D+02    0.422427D-01
   0    12    0.891899D+00    0.101123D+01    0.806083D+02   -0.147405D+00
   0    13    0.789551D+00    0.104852D+01    0.127873D+03   -0.227929D+00
   0    14    0.676801D+00    0.105568D+01   -0.109065D+03   -0.238397D+00
   0    15    0.590880D+00    0.104064D+01   -0.853818D+02   -0.217660D+00
   0    16    0.549950D+00    0.101436D+01    0.101339D+03   -0.153933D+00
   0    17    0.546347D+00    0.994570D+00    0.873970D+02   -0.105720D+00
   0    18    0.563202D+00    0.985173D+00   -0.108679D+03   -0.745198D-01
   0    19    0.578331D+00    0.980769D+00    0.145325D+03   -0.669100D-01
   0    20    0.582227D+00    0.983656D+00   -0.390440D+02   -0.667708D-01
   0    21    0.586875D+00    0.985214D+00   -0.225931D+03   -0.764856D-01
   0    22    0.583967D+00    0.979935D+00   -0.172163D+03   -0.588066D-01
   0    23    0.577982D+00    0.979861D+00    0.130394D+03   -0.564871D-01
   0    24    0.568499D+00    0.968464D+00   -0.309353D+02   -0.235501D-01
   0    25    0.553124D+00    0.955165D+00   -0.150956D+03    0.269010D-01
   0    26    0.509655D+00    0.911715D+00    0.650678D+02    0.148811D+00
   0    27    0.437239D+00    0.816851D+00    0.394379D+03    0.308272D+00
   0    28    0.319096D+00    0.651848D+00    0.420446D+03    0.402174D+00
   0    29    0.201779D+00    0.452329D+00    0.311377D+03    0.439575D+00
   0    30    0.112602D+00    0.280740D+00    0.287500D+03    0.454820D+00
   0    31    0.589852D-01    0.157384D+00    0.161400D+03    0.461756D+00
   0    32    0.302637D-01    0.840488D-01    0.483491D+02    0.464996D+00
   0    33    0.150778D-01    0.438413D-01    0.428363D+02    0.466551D+00
   0    34    0.738235D-02    0.219246D-01    0.153235D+02    0.467346D+00
   0    35    0.355697D-02    0.107768D-01    0.931821D+01    0.467733D+00
   0    36    0.173933D-02    0.531823D-02    0.526789D+01    0.467920D+00
   0    37    0.835740D-03    0.259337D-02    0.223535D+01    0.468012D+00
   0    38    0.412901D-03    0.126480D-02    0.645389D+00    0.468057D+00
   0    39    0.199785D-03    0.615596D-03    0.553591D+00    0.468079D+00
   0    40    0.972396D-04    0.296768D-03    0.174063D+00    0.468090D+00
   0    41    0.466133D-04    0.143259D-03    0.114999D+00    0.468095D+00
   0    42    0.227637D-04    0.687602D-04    0.484105D-01    0.468097D+00
   0    43    0.107049D-04    0.325492D-04    0.275302D-01    0.468098D+00
   0    44    0.506560D-05    0.154426D-04    0.132520D-01    0.468099D+00
   0    45    0.243058D-05    0.730089D-05    0.562061D-02    0.468099D+00
   0    46    0.113551D-05    0.342244D-05    0.292662D-02    0.468099D+00
   0    47    0.531919D-06    0.159734D-05    0.118077D-02    0.468100D+00
   0    48    0.245958D-06    0.741389D-06    0.558135D-03    0.468100D+00
   0    49    0.111685D-06    0.340485D-06    0.291441D-03    0.468100D+00
   0    50    0.516124D-07    0.154935D-06    0.133994D-03    0.468100D+00
   0    51    0.232463D-07    0.698543D-07    0.686831D-04    0.468100D+00
   0    52    0.103543D-07    0.314519D-07    0.277228D-04    0.468100D+00
   0    53    0.459408D-08    0.139583D-07    0.110214D-04    0.468100D+00
   0    54    0.204213D-08    0.614712D-08    0.678958D-05    0.468100D+00
   0    55    0.888243D-09    0.268328D-08    0.260274D-05    0.468100D+00
   0    56    0.383824D-09    0.115659D-08    0.111570D-05    0.468100D+00
   0    57    0.164505D-09    0.495280D-09    0.530294D-06    0.468100D+00
   0    58    0.705479D-10    0.209036D-09    0.166632D-06    0.468100D+00
   0    59    0.297161D-10    0.879041D-10    0.927991D-07    0.468100D+00
   0    60    0.123719D-10    0.368023D-10    0.528287D-07    0.468100D+00
   0    61    0.506644D-11    0.151595D-10    0.178018D-07    0.468100D+00
   0    62    0.206494D-11    0.620594D-11    0.949052D-08    0.468100D+00
   0    63    0.846026D-12    0.249775D-11    0.334650D-08    0.468100D+00
   0    64    0.340121D-12    0.998329D-12    0.154519D-08    0.468100D+00
   0    65    0.132414D-12    0.394189D-12    0.541449D-09    0.468100D+00
   0    66    0.515802D-13    0.154292D-12    0.205229D-09    0.468100D+00
   0    67    0.198882D-13    0.599329D-13    0.979998D-10    0.468100D+00
   0    68    0.774063D-14    0.229528D-13    0.274991D-10    0.468100D+00
   0    69    0.289459D-14    0.867165D-14    0.142687D-10    0.468100D+00
   0    70    0.109854D-14    0.328090D-14    0.451575D-11    0.468100D+00
   0    71    0.414234D-15    0.122489D-14    0.198387D-11    0.468100D+00
   0    72    0.151792D-15    0.451095D-15    0.890104D-12    0.468100D+00
   0    73    0.550935D-16    0.162743D-15    0.329058D-12    0.468100D+00
   0    74    0.198323D-16    0.582020D-16    0.900950D-13    0.468100D+00
   0    75    0.707027D-17    0.206439D-16    0.366979D-13    0.468100D+00
   0    76    0.247902D-17    0.726319D-17    0.132954D-13    0.468100D+00
   0    77    0.858021D-18    0.250587D-17    0.518248D-14    0.468100D+00
   0    78    0.297272D-18    0.870944D-18    0.191515D-14    0.468100D+00
   0    79    0.101639D-18    0.297205D-18    0.677208D-15    0.468100D+00
   0    80    0.340942D-19    0.999437D-19    0.228359D-15    0.468100D+00
   0    81    0.112304D-19    0.328773D-19    0.610500D-16    0.468100D+00
   0    82    0.367207D-20    0.107906D-19    0.233514D-16    0.468100D+00
   0    83    0.119673D-20    0.352201D-20    0.736477D-17    0.468100D+00
   0    84    0.382279D-21    0.112499D-20    0.273995D-17    0.468100D+00
   0    85    0.122204D-21    0.359009D-21    0.882230D-18    0.468100D+00
   0    86    0.391892D-22    0.114027D-21    0.246052D-18    0.468100D+00
   0    87    0.123480D-22    0.358652D-22    0.939150D-19    0.468100D+00
   0    88    0.382588D-23    0.110538D-22    0.271899D-19    0.468100D+00
   0    89    0.116963D-23    0.337837D-23    0.811859D-20    0.468100D+00
   0    90    0.353785D-24    0.101937D-23    0.283272D-20    0.468100D+00
   0    91    0.105465D-24    0.305056D-24    0.733344D-21    0.468100D+00
   0    92    0.312726D-25    0.908332D-25    0.239439D-21    0.468100D+00
   0    93    0.910851D-26    0.265052D-25    0.719437D-22    0.468100D+00
   0    94    0.264280D-26    0.771852D-26    0.194043D-22    0.468100D+00
   0    95    0.758483D-27    0.221590D-26    0.634105D-23    0.468100D+00
   0    96    0.217417D-27    0.632997D-27    0.198484D-23    0.468100D+00
   0    97    0.609865D-28    0.178108D-27    0.503503D-24    0.468100D+00
   0    98    0.171251D-28    0.501162D-28    0.156648D-24    0.468100D+00
   0    99    0.474240D-29    0.138435D-28    0.392709D-25    0.468100D+00
   0   100    0.129217D-29    0.377333D-29    0.117471D-25    0.468100D+00
   0   101    0.350365D-30    0.101823D-29    0.329909D-26    0.468100D+00
   0   102    0.928586D-31    0.271874D-30    0.822301D-27    0.468100D+00
   0   103    0.250095D-31    0.724801D-31    0.250976D-27    0.468100D+00
   0   104    0.659010D-32    0.192434D-31    0.604378D-28    0.468100D+00
   0   105    0.172788D-32    0.501132D-32    0.159811D-28    0.468100D+00
   0   106    0.450510D-33    0.129305D-32    0.438746D-29    0.468100D+00
   0   107    0.114350D-33    0.330827D-33    0.115584D-29    0.468100D+00
   0   108    0.289679D-34    0.839698D-34    0.298092D-30    0.468100D+00
   0   109    0.724728D-35    0.210706D-34    0.790373D-31    0.468100D+00
   0   110    0.179802D-35    0.518085D-35    0.190778D-31    0.468100D+00
   0   111    0.440818D-36    0.128217D-35    0.488145D-32    0.468100D+00
   0   112    0.108578D-36    0.312099D-36    0.124941D-32    0.468100D+00
   0   113    0.258807D-37    0.748330D-37    0.293485D-33    0.468100D+00
   0   114    0.617291D-38    0.179314D-37    0.683553D-34    0.468100D+00
   0   115    0.146976D-38    0.428917D-38    0.173413D-34    0.468100D+00
   0   116    0.347745D-39    0.100064D-38    0.377156D-35    0.468100D+00
   0   117    0.808676D-40    0.233457D-39    0.101996D-35    0.468100D+00
   0   118    0.188299D-40    0.539889D-40    0.220977D-36    0.468100D+00
   0   119    0.428768D-41    0.124046D-40    0.559144D-37    0.468100D+00
   0   120    0.968576D-42    0.280388D-41    0.114081D-37    0.468100D+00
   0   121    0.218013D-42    0.632425D-42    0.284433D-38    0.468100D+00
   0   122    0.486147D-43    0.141624D-42    0.654222D-39    0.468100D+00
   0   123    0.107800D-43    0.311248D-43    0.134277D-39    0.468100D+00
   0   124    0.235307D-44    0.681913D-44    0.320601D-40    0.468100D+00
   0   125    0.514195D-45    0.149629D-44    0.667605D-41    0.468100D+00
   0   126    0.111223D-45    0.320714D-45    0.150687D-41    0.468100D+00
   0   127    0.237612D-46    0.688516D-46    0.334935D-42    0.468100D+00
   0   128    0.503173D-47    0.145043D-46    0.743291D-43    0.468100D+00
   0   129    0.105561D-47    0.303315D-47    0.148913D-43    0.468100D+00
   0   130    0.218389D-48    0.627585D-48    0.317693D-44    0.468100D+00
   0   131    0.449855D-49    0.129433D-48    0.618062D-45    0.468100D+00
   0   132    0.920429D-50    0.263876D-49    0.133419D-45    0.468100D+00
   0   133    0.185839D-50    0.533511D-50    0.285858D-46    0.468100D+00
   0   134    0.371321D-51    0.106780D-50    0.572331D-47    0.468100D+00
   0   135    0.739867D-52    0.213249D-51    0.118532D-47    0.468100D+00
   0   136    0.146823D-52    0.421085D-52    0.217240D-48    0.468100D+00
   0   137    0.288509D-53    0.825505D-53    0.429208D-49    0.468100D+00
   0   138    0.560458D-54    0.161841D-53    0.883490D-50    0.468100D+00
   0   139    0.108089D-54    0.311801D-54    0.180285D-50    0.468100D+00
   0   140    0.205687D-55    0.596553D-55    0.339185D-51    0.468100D+00
   0   141    0.390835D-56    0.112622D-55    0.675277D-52    0.468100D+00
   0   142    0.736711D-57    0.211879D-56    0.119456D-52    0.468100D+00
   0   143    0.137173D-57    0.394930D-57    0.241375D-53    0.468100D+00
   0   144    0.253484D-58    0.731077D-58    0.429738D-54    0.468100D+00
   0   145    0.470824D-59    0.134628D-58    0.828954D-55    0.468100D+00
   0   146    0.856401D-60    0.246040D-59    0.157657D-55    0.468100D+00
   0   147    0.154037D-60    0.444633D-60    0.269452D-56    0.468100D+00
   0   148    0.276948D-61    0.800921D-61    0.509590D-57    0.468100D+00
   0   149    0.495261D-62    0.143348D-61    0.877796D-58    0.468100D+00
   0   150    0.875745D-63    0.252361D-62    0.160448D-58    0.468100D+00
   0   151    0.153989D-63    0.442746D-63    0.297148D-59    0.468100D+00
   0   152    0.266442D-64    0.768571D-64    0.502061D-60    0.468100D+00
   0   153    0.469569D-65    0.133283D-64    0.819980D-61    0.468100D+00
   0   154    0.805600D-66    0.228263D-65    0.158723D-61    0.468100D+00
   0   155    0.136646D-66    0.390794D-66    0.270594D-62    0.468100D+00
   0   156    0.231317D-67    0.661106D-67    0.459990D-63    0.468100D+00
   0   157    0.387459D-68    0.111130D-67    0.795823D-64    0.468100D+00
   0   158    0.647266D-69    0.185901D-68    0.127563D-64    0.468100D+00
   0   159    0.107655D-69    0.309139D-69    0.207742D-65    0.468100D+00
   0   160    0.174219D-70    0.507724D-70    0.371555D-66    0.468100D+00
   0   161    0.287822D-71    0.831095D-71    0.597179D-67    0.468100D+00
   0   162    0.469178D-72    0.134870D-71    0.971236D-68    0.468100D+00
   0   163    0.750370D-73    0.216376D-72    0.162315D-68    0.468100D+00
   0   164    0.119713D-73    0.345075D-73    0.256238D-69    0.468100D+00
   0   165    0.191050D-74    0.547029D-74    0.391673D-70    0.468100D+00
   0   166    0.300848D-75    0.864097D-75    0.649501D-71    0.468100D+00
   0   167    0.475265D-76    0.135592D-75    0.100255D-71    0.468100D+00
   0   168    0.730941D-77    0.209552D-76    0.160805D-72    0.468100D+00
   0   169    0.112570D-77    0.324888D-77    0.260364D-73    0.468100D+00
   0   170    0.172194D-78    0.497588D-78    0.399736D-74    0.468100D+00
   0   171    0.261029D-79    0.756064D-79    0.592037D-75    0.468100D+00
   0   172    0.394167D-80    0.113895D-79    0.882952D-76    0.468100D+00
   0   173    0.590322D-81    0.169223D-80    0.134168D-76    0.468100D+00
   0   174    0.878391D-82    0.250150D-81    0.200301D-77    0.468100D+00
   0   175    0.129524D-82    0.370829D-82    0.297971D-78    0.468100D+00
   0   176    0.188550D-83    0.540178D-83    0.446976D-79    0.468100D+00
   0   177    0.275031D-84    0.791155D-84    0.650063D-80    0.468100D+00
   0   178    0.401764D-85    0.114186D-84    0.981047D-81    0.468100D+00
   0   179    0.572104D-86    0.164728D-85    0.145467D-81    0.468100D+00
   0   180    0.817215D-87    0.235448D-86    0.197144D-82    0.468100D+00
   0   181    0.116114D-87    0.334913D-87    0.285606D-83    0.468100D+00
   0   182    0.163767D-88    0.472036D-88    0.414562D-84    0.468100D+00
   0   183    0.230827D-89    0.662580D-89    0.582485D-85    0.468100D+00
   0   184    0.325071D-90    0.927502D-90    0.816366D-86    0.468100D+00
   0   185    0.444836D-91    0.128895D-90    0.120305D-86    0.468100D+00
   0   186    0.614322D-92    0.176138D-91    0.163235D-87    0.468100D+00
   0   187    0.839494D-93    0.241201D-92    0.217615D-88    0.468100D+00
   0   188    0.113328D-93    0.326117D-93    0.293114D-89    0.468100D+00
   0   189    0.152346D-94    0.439710D-94    0.407530D-90    0.468100D+00
   0   190    0.203733D-95    0.586532D-95    0.554854D-91    0.468100D+00
   0   191    0.271140D-96    0.783031D-96    0.752167D-92    0.468100D+00
   0   192    0.359553D-97    0.103118D-96    0.996438D-93    0.468100D+00
   0   193    0.470294D-98    0.135008D-97    0.133645D-93    0.468100D+00
   0   194    0.605150D-99    0.175149D-98    0.173048D-94    0.468100D+00
   0   195    0.788426-100    0.226968D-99    0.220707D-95    0.468100D+00
   0   196    0.101056-100    0.291571-100    0.289631D-96    0.468100D+00
   0   197    0.130075-101    0.372368-101    0.375639D-97    0.468100D+00
   0   198    0.164544-102    0.474000-102    0.468829D-98    0.468100D+00
   0   199    0.208319-103    0.598439-103    0.600184D-99    0.468100D+00
   0   200    0.262819-104    0.753172-104    0.752566-100    0.468100D+00
   0   201    0.328273-105    0.943231-105    0.994061-101    0.468100D+00
   0   202    0.408033-106    0.116797-105    0.121218-101    0.468100D+00
   0   203    0.498311-107    0.143107-106    0.152946-102    0.468100D+00
   0   204    0.616379-108    0.174810-107    0.188565-103    0.468100D+00
   0   205    0.749145-109    0.214259-108    0.222620-104    0.468100D+00
   0   206    0.913967-110    0.259486-109    0.280672-105    0.468100D+00
   0   207    0.109897-110    0.312905-110    0.343550-106    0.468100D+00
   0   208    0.130674-111    0.374650-111    0.403633-107    0.468100D+00
   0   209    0.154782-112    0.442866-112    0.495822-108    0.468100D+00
   0   210    0.183515-113    0.521763-113    0.568833-109    0.468100D+00
   0   211    0.213724-114    0.615501-114    0.707812-110    0.468100D+00
   0   212    0.250277-115    0.719509-115    0.800908-111    0.468100D+00
   0   213    0.289738-116    0.834353-116    0.927076-112    0.468100D+00
   0   214    0.337392-117    0.961487-117    0.109312-112    0.468100D+00
   0   215    0.386290-118    0.110000-117    0.125113-113    0.468100D+00
   0   216    0.436893-119    0.124949-118    0.148053-114    0.468100D+00
   0   217    0.491734-120    0.142013-119    0.165267-115    0.468100D+00
   0   218    0.555422-121    0.159838-120    0.184642-116    0.468100D+00
   0   219    0.619830-122    0.178823-121    0.209491-117    0.468100D+00
   0   220    0.684418-123    0.198512-122    0.237970-118    0.468100D+00
   0   221    0.763527-124    0.219582-123    0.265695-119    0.468100D+00
   0   222    0.844845-125    0.241549-124    0.284835-120    0.468100D+00
   0   223    0.924795-126    0.264999-125    0.328682-121    0.468100D+00
   0   224    0.999193-127    0.288147-126    0.361334-122    0.468100D+00
   0   225    0.108272-127    0.311459-127    0.376026-123    0.468100D+00
   0   226    0.116605-128    0.334912-128    0.412601-124    0.468100D+00
   0   227    0.125110-129    0.358670-129    0.451369-125    0.468100D+00
   0   228    0.133888-130    0.381545-130    0.475717-126    0.468100D+00
   0   229    0.140826-131    0.403421-131    0.514643-127    0.468100D+00
   0   230    0.148906-132    0.423631-132    0.551690-128    0.468100D+00
   0   231    0.154833-133    0.443518-133    0.579771-129    0.468100D+00
   0   232    0.161450-134    0.460291-134    0.589273-130    0.468100D+00
   0   233    0.165863-135    0.477892-135    0.621641-131    0.468100D+00
   0   234    0.171488-136    0.489296-136    0.640539-132    0.468100D+00
   0   235    0.174509-137    0.500347-137    0.680242-133    0.468100D+00
   0   236    0.178001-138    0.508306-138    0.691969-134    0.468100D+00
   0   237    0.178962-139    0.515277-139    0.703111-135    0.468100D+00
   0   238    0.180153-140    0.518461-140    0.689637-136    0.468100D+00
   0   239    0.179190-141    0.514161-141    0.698224-137    0.468100D+00
   0   240    0.177888-142    0.512317-142    0.712416-138    0.468100D+00
   0   241    0.175451-143    0.505011-143    0.711444-139    0.468100D+00
   0   242    0.173129-144    0.495539-144    0.679635-140    0.468100D+00
   0   243    0.169632-145    0.484186-145    0.668574-141    0.468100D+00
   0   244    0.164129-146    0.470914-146    0.677430-142    0.468100D+00
   0   245    0.158948-147    0.453493-147    0.652223-143    0.468100D+00
   0   246    0.152368-148    0.436308-148    0.621758-144    0.468100D+00
   0   247    0.145052-149    0.416266-149    0.606695-145    0.468100D+00
   0   248    0.138864-150    0.396259-150    0.575609-146    0.468100D+00
   0   249    0.131567-151    0.374133-151    0.548697-147    0.468100D+00
   0   250    0.122738-152    0.354270-152    0.530806-148    0.468100D+00
   0   251    0.116162-153    0.332421-153    0.488462-149    0.468100D+00
   0   252    0.108473-154    0.310044-154    0.468463-150    0.468100D+00
   0   253    0.100079-155    0.287022-155    0.436583-151    0.468100D+00
   0   254    0.921532-157    0.263631-156    0.401113-152    0.468100D+00
   0   255    0.832079-158    0.240606-157    0.374837-153    0.468100D+00
   0   256    0.762707-159    0.220206-158    0.333604-154    0.468100D+00
   0   257    0.694850-160    0.199298-159    0.310128-155    0.468100D+00
   0   258    0.624567-161    0.179527-160    0.273233-156    0.468100D+00
   0   259    0.561677-162    0.161742-161    0.252516-157    0.468100D+00
   0   260    0.505855-163    0.144351-162    0.228566-158    0.468100D+00
   0   261    0.450025-164    0.128025-163    0.200861-159    0.468100D+00
   0   262    0.396317-165    0.113319-164    0.183374-160    0.468100D+00
   0   263    0.349480-166    0.100151-165    0.157436-161    0.468100D+00
   0   264    0.306010-167    0.878279-167    0.142760-162    0.468100D+00
   0   265    0.266164-168    0.765168-168    0.121973-163    0.468100D+00
   0   266    0.229945-169    0.663096-169    0.108174-164    0.468100D+00
   0   267    0.198234-170    0.571815-170    0.939529-166    0.468100D+00
   0   268    0.170567-171    0.488973-171    0.796958-167    0.468100D+00
   0   269    0.145049-172    0.414019-172    0.682172-168    0.468100D+00
   0   270    0.122731-173    0.352200-173    0.587527-169    0.468100D+00
   0   271    0.103418-174    0.297719-174    0.506829-170    0.468100D+00
   0   272    0.873478-176    0.251175-175    0.421598-171    0.468100D+00
   0   273    0.730831-177    0.210441-176    0.353813-172    0.468100D+00
   0   274    0.608040-178    0.174624-177    0.293099-173    0.468100D+00
   0   275    0.503308-179    0.144149-178    0.243041-174    0.468100D+00
   0   276    0.412644-180    0.119090-179    0.204050-175    0.468100D+00
   0   277    0.340780-181    0.982329-181    0.167170-176    0.468100D+00
   0   278    0.278928-182    0.797892-182    0.138170-177    0.468100D+00
   0   279    0.226665-183    0.649657-183    0.113097-178    0.468100D+00
   0   280    0.181405-184    0.524781-184    0.936640-180    0.468100D+00
   0   281    0.145630-185    0.421348-185    0.754344-181    0.468100D+00
   0   282    0.116306-186    0.335054-186    0.589064-182    0.468100D+00
   0   283    0.931336-188    0.265852-187    0.470342-183    0.468100D+00
   0   284    0.737441-189    0.210336-188    0.380813-184    0.468100D+00
   0   285    0.582760-190    0.165575-189    0.296949-185    0.468100D+00
   0   286    0.453824-191    0.130216-190    0.237722-186    0.468100D+00
   0   287    0.354149-192    0.101213-191    0.184241-187    0.468100D+00
   0   288    0.274422-193    0.782789-193    0.146009-188    0.468100D+00
   0   289    0.211351-194    0.599665-194    0.112500-189    0.468100D+00
   0   290    0.162140-195    0.459804-195    0.871508-191    0.468100D+00
   0   291    0.123768-196    0.351449-196    0.669433-192    0.468100D+00
   0   292    0.938571-198    0.267958-197    0.503990-193    0.468100D+00
   0   293    0.711218-199    0.203090-198    0.392685-194    0.468100D+00
   0   294    0.538412-200    0.153805-199    0.292245-195    0.468100D+00
   0   295    0.402273-201    0.114954-200    0.225523-196    0.468100D+00
   0   296    0.299234-202    0.856656-202    0.168666-197    0.468100D+00
   0   297    0.222874-203    0.634923-203    0.122888-198    0.468100D+00
   0   298    0.164444-204    0.469316-204    0.935363-200    0.468100D+00
   0   299    0.120211-205    0.344563-205    0.673648-201    0.468100D+00
   0   300    0.878425-207    0.252947-206    0.493778-202    0.468100D+00
   0   301    0.642396-208    0.183232-207    0.367813-203    0.468100D+00
   0   302    0.464863-209    0.132608-208    0.267876-204    0.468100D+00
   0   303    0.336733-210    0.961067-210    0.190723-205    0.468100D+00
   0   304    0.239460-211    0.688883-211    0.140749-206    0.468100D+00
   0   305    0.171013-212    0.492146-212    0.999018-208    0.468100D+00
   0   306    0.121482-213    0.348824-213    0.717144-209    0.468100D+00
   0   307    0.868363-215    0.246410-214    0.498424-210    0.468100D+00
   0   308    0.608177-216    0.174647-215    0.368479-211    0.468100D+00
   0   309    0.426546-217    0.122031-216    0.255542-212    0.468100D+00
   0   310    0.296631-218    0.852634-218    0.176733-213    0.468100D+00
   0   311    0.206111-219    0.596431-219    0.126227-214    0.468100D+00
   0   312    0.142359-220    0.412304-220    0.871474-216    0.468100D+00
   0   313    0.985638-222    0.282973-221    0.605192-217    0.468100D+00
   0   314    0.675726-223    0.194195-222    0.414351-218    0.468100D+00
   0   315    0.463875-224    0.132832-223    0.287066-219    0.468100D+00
   0   316    0.315631-225    0.898698-225    0.194615-220    0.468100D+00
   0   317    0.213457-226    0.608256-226    0.133101-221    0.468100D+00
   0   318    0.143827-227    0.411897-227    0.894637-223    0.468100D+00
   0   319    0.963175-229    0.275323-228    0.606885-224    0.468100D+00
   0   320    0.641133-230    0.182981-229    0.402624-225    0.468100D+00
   0   321    0.425626-231    0.121422-230    0.272353-226    0.468100D+00
   0   322    0.280050-232    0.802774-232    0.180500-227    0.468100D+00
   0   323    0.184434-233    0.525177-233    0.118655-228    0.468100D+00
   0   324    0.120277-234    0.344795-234    0.778076-230    0.468100D+00
   0   325    0.780344-236    0.223736-235    0.514863-231    0.468100D+00
   0   326    0.509736-237    0.145425-236    0.332965-232    0.468100D+00
   0   327    0.328210-238    0.937764-238    0.214375-233    0.468100D+00
   0   328    0.211136-239    0.600593-239    0.138810-234    0.468100D+00
   0   329    0.135403-240    0.384167-240    0.888162-236    0.468100D+00
   0   330    0.858242-242    0.244216-241    0.575522-237    0.468100D+00
   0   331    0.544432-243    0.154997-242    0.362498-238    0.468100D+00
   0   332    0.344429-244    0.977704-244    0.228589-239    0.468100D+00
   0   333    0.214046-245    0.612066-245    0.147444-240    0.468100D+00
   0   334    0.134508-246    0.384261-246    0.919199-242    0.468100D+00
   0   335    0.835836-248    0.239535-247    0.570322-243    0.468100D+00
   0   336    0.517483-249    0.148597-248    0.354629-244    0.468100D+00
   0   337    0.320947-250    0.920583-250    0.222926-245    0.468100D+00
   0   338    0.196983-251    0.563426-251    0.137309-246    0.468100D+00
   0   339    0.119955-252    0.345296-252    0.834656-248    0.468100D+00
   0   340    0.730932-254    0.210383-253    0.513203-249    0.468100D+00
   0   341    0.443968-255    0.127009-254    0.311357-250    0.468100D+00
   0   342    0.266695-256    0.767899-256    0.189518-251    0.468100D+00
   0   343    0.160544-257    0.460475-257    0.115032-252    0.468100D+00
   0   344    0.959970-259    0.274146-258    0.689297-254    0.468100D+00
   0   345    0.567735-260    0.162770-259    0.414885-255    0.468100D+00
   0   346    0.338197-261    0.961570-261    0.245663-256    0.468100D+00
   0   347    0.200208-262    0.569913-262    0.144174-257    0.468100D+00
   0   348    0.117768-263    0.336019-263    0.850259-259    0.468100D+00
   0   349    0.687308-265    0.197005-264    0.509100-260    0.468100D+00
   0   350    0.399065-266    0.114869-265    0.294526-261    0.468100D+00
   0   351    0.232135-267    0.668384-267    0.172639-262    0.468100D+00
   0   352    0.133560-268    0.384700-268    0.100768-263    0.468100D+00
   0   353    0.772309-270    0.220702-269    0.580284-265    0.468100D+00
   0   354    0.442996-271    0.126669-270    0.331260-266    0.468100D+00
   0   355    0.252262-272    0.720730-272    0.190258-267    0.468100D+00
   0   356    0.142549-273    0.408972-273    0.109826-268    0.468100D+00
   0   357    0.804462-275    0.230693-274    0.612476-270    0.468100D+00
   0   358    0.452248-276    0.129571-275    0.345129-271    0.468100D+00
   0   359    0.255116-277    0.725565-277    0.196170-272    0.468100D+00
   0   360    0.141590-278    0.405156-278    0.110151-273    0.468100D+00
   0   361    0.786413-280    0.225051-279    0.618221-275    0.468100D+00
   0   362    0.433339-281    0.123541-280    0.336255-276    0.468100D+00
   0   363    0.238572-282    0.676724-282    0.188315-277    0.468100D+00
   0   364    0.130572-283    0.370087-283    0.102983-278    0.468100D+00
   0   365    0.711146-285    0.201841-284    0.569916-280    0.468100D+00
   0   366    0.385461-286    0.109803-285    0.310729-281    0.468100D+00
   0   367    0.207690-287    0.592415-287    0.168736-282    0.468100D+00
   0   368    0.111112-288    0.318346-288    0.898634-284    0.468100D+00
   0   369    0.594951-290    0.170274-289    0.480292-285    0.468100D+00
   0   370    0.318102-291    0.907170-291    0.259652-286    0.468100D+00
   0   371    0.169231-292    0.481576-292    0.138966-287    0.468100D+00
   0   372    0.893446-294    0.255573-293    0.742464-289    0.468100D+00
   0   373    0.472165-295    0.134959-294    0.392078-290    0.468100D+00
   0   374    0.246646-296    0.705040-296    0.206228-291    0.468100D+00
   0   375    0.128575-297    0.367351-297    0.106954-292    0.468100D+00
   0   376    0.665034-299    0.190303-298    0.564734-294    0.468100D+00
   0   377    0.342926-300    0.987899-300    0.290611-295    0.468100D+00
   0   378    0.178064-301    0.509055-301    0.148367-296    0.468100D+00
   0   379    0.912161-303    0.261484-302    0.771102-298    0.468100D+00
   0   380    0.467412-304    0.133994-303    0.395949-299    0.468100D+00
   0   381    0.238288-305    0.681079-305    0.202677-300    0.468100D+00
   0   382    0.120989-306    0.344451-306    0.103161-301    0.468100D+00
   0   383    0.609436-308    0.174085-307    0.525449-303    0.468100D+00
   0   384    0.306362-309    0.871840-309    0.266020-304    0.468100D+00
   0   385    0.153767-310    0.437427-310    0.132690-305    0.468100D+00
   0   386    0.769870-312    0.217639-311    0.677254-307    0.468100D+00
   0   387    0.381248-313    0.108331-312    0.335266-308    0.468100D+00
   0   388    0.188780-314    0.536259-314    0.168121-309    0.468100D+00
   0   389    0.925282-316    0.263723-315    0.819017-311    0.468100D+00
   0   390    0.454373-317    0.129276-316    0.409041-312    0.468100D+00
   0   391    0.221208-318    0.633481-318    0.198407-313    0.468100D+00
   0   392    0.108003-319    0.303307-319    0.975286-315    0.468100D+00
   0   393    0.543472-321    0.154643-320    0.464422-316    0.468100D+00
   0   394    0.000000D+00    0.148220-322    0.000000D+00    0.468100D+00
   0   395    0.000000D+00    0.000000D+00    0.000000D+00    0.468100D+00
   0   396    0.000000D+00    0.000000D+00    0.000000D+00    0.468100D+00
   0   397    0.000000D+00    0.000000D+00    0.000000D+00    0.468100D+00