variables =  "IG"  "JG"  "PHI"  "Temp."  "Latent_heat"  "mm"
ZONE  I=  401  J=  101
   0     0    0.100000D+01    0.733324D+00   -0.298838D-05    0.369273D+00
   0     1    0.100000D+01    0.733324D+00    0.152900D-04    0.369273D+00
   0     2    0.100000D+01    0.737321D+00   -0.668240D-04    0.367184D+00
   0     3    0.100000D+01    0.745215D+00   -0.125846D-03    0.362869D+00
   0     4    0.999999D+00    0.756808D+00   -0.612896D-03    0.356041D+00
   0     5    0.999998D+00    0.771813D+00   -0.320705D-03    0.346218D+00
   0     6    0.999992D+00    0.789863D+00   -0.578670D-02    0.332664D+00
   0     7    0.999976D+00    0.810520D+00    0.167029D-01    0.314288D+00
   0     8    0.999925D+00    0.833295D+00    0.692890D-01    0.289521D+00
   0     9    0.999776D+00    0.857657D+00   -0.773730D-01    0.256210D+00
   0    10    0.999343D+00    0.883041D+00    0.592673D-02    0.211733D+00
   0    11    0.998129D+00    0.908838D+00    0.191797D+00    0.153975D+00
   0    12    0.994839D+00    0.934493D+00   -0.359395D+01    0.834292D-01
   0    13    0.986585D+00    0.959349D+00   -0.580924D+01    0.619821D-02
   0    14    0.967331D+00    0.982116D+00    0.221835D+02   -0.651518D-01
   0    15    0.927102D+00    0.100113D+01    0.281295D+02   -0.120241D+00
   0    16    0.854163D+00    0.101562D+01    0.166125D+02   -0.158976D+00
   0    17    0.745910D+00    0.102541D+01   -0.928393D+02   -0.178860D+00
   0    18    0.616575D+00    0.101892D+01   -0.533543D+02   -0.168231D+00
   0    19    0.513797D+00    0.100187D+01   -0.200285D+03   -0.125890D+00
   0    20    0.464893D+00    0.984843D+00    0.104266D+03   -0.782882D-01
   0    21    0.473631D+00    0.978757D+00   -0.196092D+03   -0.510259D-01
   0    22    0.515512D+00    0.972980D+00    0.750528D+02   -0.379202D-01
   0    23    0.563672D+00    0.977630D+00    0.419971D+02   -0.471780D-01
   0    24    0.596084D+00    0.979046D+00   -0.159452D+03   -0.593695D-01
   0    25    0.615924D+00    0.987292D+00    0.129606D+03   -0.765437D-01
   0    26    0.617336D+00    0.990504D+00   -0.128552D+03   -0.922310D-01
   0    27    0.610387D+00    0.994284D+00    0.714207D+02   -0.971180D-01
   0    28    0.596230D+00    0.991617D+00    0.837474D+02   -0.940315D-01
   0    29    0.590375D+00    0.993188D+00    0.970302D+02   -0.101547D+00
   0    30    0.584085D+00    0.991819D+00    0.373371D+02   -0.949689D-01
   0    31    0.582773D+00    0.986620D+00    0.610158D+02   -0.816430D-01
   0    32    0.587297D+00    0.990178D+00    0.582676D+02   -0.847559D-01
   0    33    0.584867D+00    0.987085D+00    0.218010D+02   -0.807739D-01
   0    34    0.586921D+00    0.988480D+00   -0.404198D+02   -0.834540D-01
   0    35    0.584672D+00    0.989533D+00    0.378590D+02   -0.833586D-01
   0    36    0.583082D+00    0.985507D+00    0.134859D+03   -0.737955D-01
   0    37    0.583779D+00    0.986705D+00    0.656755D+02   -0.842041D-01
   0    38    0.580093D+00    0.988908D+00   -0.136715D+03   -0.802887D-01
   0    39    0.582797D+00    0.987762D+00    0.129528D+03   -0.794873D-01
   0    40    0.584125D+00    0.985486D+00   -0.210086D+03   -0.757791D-01
   0    41    0.580513D+00    0.982362D+00    0.162598D+03   -0.695670D-01
   0    42    0.581068D+00    0.990604D+00    0.127028D+03   -0.867971D-01
   0    43    0.581498D+00    0.987314D+00   -0.408255D+02   -0.870195D-01
   0    44    0.583947D+00    0.987426D+00   -0.216338D+03   -0.761591D-01
   0    45    0.580321D+00    0.987806D+00    0.184113D+03   -0.807980D-01
   0    46    0.578237D+00    0.983532D+00    0.116280D+01   -0.658870D-01
   0    47    0.578225D+00    0.986117D+00    0.888921D+02   -0.773730D-01
   0    48    0.576345D+00    0.985782D+00   -0.173774D+03   -0.707379D-01
   0    49    0.576256D+00    0.985213D+00    0.144169D+03   -0.779544D-01
   0    50    0.578834D+00    0.986621D+00    0.121897D+03   -0.814957D-01
   0    51    0.579783D+00    0.990323D+00   -0.191685D+03   -0.941898D-01
   0    52    0.574090D+00    0.987948D+00    0.990617D+02   -0.903773D-01
   0    53    0.575400D+00    0.983097D+00    0.208125D+03   -0.663892D-01
   0    54    0.575771D+00    0.981939D+00   -0.136469D+03   -0.639478D-01
   0    55    0.577065D+00    0.985150D+00   -0.239251D+02   -0.721963D-01
   0    56    0.578273D+00    0.984570D+00    0.130577D+03   -0.778412D-01
   0    57    0.573853D+00    0.987758D+00    0.114909D+02   -0.843748D-01
   0    58    0.576225D+00    0.984855D+00   -0.121145D+03   -0.773200D-01
   0    59    0.578529D+00    0.985272D+00    0.622607D+01   -0.832358D-01
   0    60    0.579501D+00    0.984061D+00   -0.208231D+03   -0.681091D-01
   0    61    0.577709D+00    0.991442D+00    0.168064D+03   -0.943203D-01
   0    62    0.576440D+00    0.985961D+00   -0.567331D+02   -0.784140D-01
   0    63    0.576766D+00    0.985494D+00    0.257747D+02   -0.785110D-01
   0    64    0.580562D+00    0.986761D+00    0.465707D+02   -0.836598D-01
   0    65    0.578049D+00    0.989487D+00    0.119137D+03   -0.839235D-01
   0    66    0.577545D+00    0.985260D+00   -0.145664D+03   -0.815631D-01
   0    67    0.577867D+00    0.987461D+00   -0.991776D+02   -0.799918D-01
   0    68    0.578103D+00    0.986637D+00    0.258430D+02   -0.834392D-01
   0    69    0.576542D+00    0.984077D+00   -0.141773D+03   -0.709974D-01
   0    70    0.579525D+00    0.983140D+00   -0.990775D+01   -0.734720D-01
   0    71    0.577500D+00    0.987323D+00    0.719470D+02   -0.850221D-01
   0    72    0.576511D+00    0.984189D+00    0.148634D+03   -0.733499D-01
   0    73    0.574277D+00    0.980006D+00    0.121719D+03   -0.625075D-01
   0    74    0.572589D+00    0.983036D+00   -0.105002D+03   -0.699830D-01
   0    75    0.574249D+00    0.982327D+00   -0.347700D+02   -0.717644D-01
   0    76    0.575010D+00    0.984139D+00   -0.216029D+03   -0.774752D-01
   0    77    0.573105D+00    0.985774D+00    0.151009D+03   -0.727670D-01
   0    78    0.572355D+00    0.982452D+00   -0.125280D+03   -0.698316D-01
   0    79    0.571367D+00    0.984602D+00   -0.313184D+02   -0.683695D-01
   0    80    0.574452D+00    0.986571D+00   -0.146867D+03   -0.750397D-01
   0    81    0.579498D+00    0.988920D+00   -0.203476D+02   -0.840480D-01
   0    82    0.578859D+00    0.988292D+00    0.107130D+03   -0.822124D-01
   0    83    0.578925D+00    0.985694D+00   -0.184204D+03   -0.824647D-01
   0    84    0.575715D+00    0.987105D+00    0.566202D+02   -0.741176D-01
   0    85    0.574815D+00    0.987387D+00    0.615161D+02   -0.881796D-01
   0    86    0.574559D+00    0.985659D+00   -0.145754D+03   -0.786194D-01
   0    87    0.577664D+00    0.983913D+00   -0.105935D+03   -0.767206D-01
   0    88    0.574937D+00    0.983202D+00    0.828483D+02   -0.658516D-01
   0    89    0.575188D+00    0.985337D+00   -0.298116D+02   -0.723583D-01
   0    90    0.572373D+00    0.987637D+00    0.625190D+02   -0.777629D-01
   0    91    0.576101D+00    0.984693D+00   -0.174193D+03   -0.742099D-01
   0    92    0.576904D+00    0.986296D+00   -0.139871D+03   -0.747382D-01
   0    93    0.576130D+00    0.984811D+00   -0.964796D+02   -0.753521D-01
   0    94    0.576313D+00    0.983387D+00    0.276518D+02   -0.704692D-01
   0    95    0.577434D+00    0.984424D+00   -0.126435D+02   -0.732685D-01
   0    96    0.569816D+00    0.983061D+00    0.695957D+02   -0.688123D-01
   0    97    0.571319D+00    0.978851D+00    0.142435D+03   -0.546861D-01
   0    98    0.567332D+00    0.975253D+00   -0.205718D+03   -0.394851D-01
   0    99    0.551893D+00    0.963680D+00    0.739728D+02    0.482033D-03
   0   100    0.531812D+00    0.941873D+00    0.128271D+03    0.671484D-01
   0   101    0.485599D+00    0.885969D+00    0.385696D+03    0.210596D+00
   0   102    0.395794D+00    0.774911D+00    0.579994D+03    0.346339D+00
   0   103    0.276474D+00    0.592865D+00    0.423932D+03    0.417815D+00
   0   104    0.167862D+00    0.396378D+00    0.273549D+03    0.445697D+00
   0   105    0.926008D-01    0.238526D+00    0.250554D+03    0.457474D+00
   0   106    0.478636D-01    0.132115D+00    0.122662D+03    0.462932D+00
   0   107    0.240099D-01    0.698508D-01    0.757459D+02    0.465562D+00
   0   108    0.120590D-01    0.357732D-01    0.301659D+02    0.466849D+00
   0   109    0.595822D-02    0.180874D-01    0.103870D+02    0.467477D+00
   0   110    0.293233D-02    0.899057D-02    0.510514D+01    0.467793D+00
   0   111    0.143884D-02    0.442822D-02    0.208861D+01    0.467949D+00
   0   112    0.714470D-03    0.218631D-02    0.189222D+01    0.468026D+00
   0   113    0.351183D-03    0.108008D-02    0.755639D+00    0.468063D+00
   0   114    0.171101D-03    0.533886D-03    0.316861D+00    0.468082D+00
   0   115    0.834053D-04    0.258648D-03    0.122074D+00    0.468091D+00
   0   116    0.399944D-04    0.125856D-03    0.768192D-01    0.468095D+00
   0   117    0.196786D-04    0.615564D-04    0.311119D-01    0.468098D+00
   0   118    0.964139D-05    0.301895D-04    0.236197D-01    0.468099D+00
   0   119    0.481408D-05    0.149157D-04    0.926673D-02    0.468099D+00
   0   120    0.233433D-05    0.731065D-05    0.585215D-02    0.468099D+00
   0   121    0.113642D-05    0.356408D-05    0.222282D-02    0.468099D+00
   0   122    0.560808D-06    0.175087D-05    0.117771D-02    0.468100D+00
   0   123    0.274354D-06    0.852949D-06    0.562834D-03    0.468100D+00
   0   124    0.133389D-06    0.416556D-06    0.403114D-03    0.468100D+00
   0   125    0.662450D-07    0.204304D-06    0.181904D-03    0.468100D+00
   0   126    0.323223D-07    0.101032D-06    0.656340D-04    0.468100D+00
   0   127    0.160663D-07    0.496683D-07    0.231998D-04    0.468100D+00
   0   128    0.785666D-08    0.244621D-07    0.213890D-04    0.468100D+00
   0   129    0.379576D-08    0.119073D-07    0.740003D-05    0.468100D+00
   0   130    0.188414D-08    0.585309D-08    0.347738D-05    0.468100D+00
   0   131    0.912310D-09    0.286138D-08    0.159243D-05    0.468100D+00
   0   132    0.446211D-09    0.140038D-08    0.119540D-05    0.468100D+00
   0   133    0.221364D-09    0.689726D-09    0.357153D-06    0.468100D+00
   0   134    0.109456D-09    0.338761D-09    0.328420D-06    0.468100D+00
   0   135    0.538911D-10    0.167530D-09    0.135658D-06    0.468100D+00
   0   136    0.263955D-10    0.816941D-10    0.684425D-07    0.468100D+00
   0   137    0.128971D-10    0.401569D-10    0.251256D-07    0.468100D+00
   0   138    0.638002D-11    0.197378D-10    0.162689D-07    0.468100D+00
   0   139    0.311099D-11    0.968964D-11    0.709410D-08    0.468100D+00
   0   140    0.152593D-11    0.472786D-11    0.457837D-08    0.468100D+00
   0   141    0.751064D-12    0.233238D-11    0.177968D-08    0.468100D+00
   0   142    0.368181D-12    0.114461D-11    0.829656D-09    0.468100D+00
   0   143    0.180648D-12    0.555224D-12    0.282335D-09    0.468100D+00
   0   144    0.889655D-13    0.272405D-12    0.151332D-09    0.468100D+00
   0   145    0.434123D-13    0.134376D-12    0.814201D-10    0.468100D+00
   0   146    0.212904D-13    0.658792D-13    0.445202D-10    0.468100D+00
   0   147    0.105607D-13    0.324002D-13    0.154243D-10    0.468100D+00
   0   148    0.513552D-14    0.159634D-13    0.140061D-10    0.468100D+00
   0   149    0.251071D-14    0.781423D-14    0.692411D-11    0.468100D+00
   0   150    0.122783D-14    0.383480D-14    0.395062D-11    0.468100D+00
   0   151    0.608434D-15    0.187248D-14    0.157591D-11    0.468100D+00
   0   152    0.292697D-15    0.912379D-15    0.905074D-12    0.468100D+00
   0   153    0.142644D-15    0.445617D-15    0.396619D-12    0.468100D+00
   0   154    0.696402D-16    0.217550D-15    0.212509D-12    0.468100D+00
   0   155    0.346333D-16    0.106909D-15    0.651954D-13    0.468100D+00
   0   156    0.169120D-16    0.526170D-16    0.398132D-13    0.468100D+00
   0   157    0.823147D-17    0.257591D-16    0.177445D-13    0.468100D+00
   0   158    0.402577D-17    0.126255D-16    0.890462D-14    0.468100D+00
   0   159    0.199272D-17    0.616565D-17    0.568376D-14    0.468100D+00
   0   160    0.976100D-18    0.303756D-17    0.202162D-14    0.468100D+00
   0   161    0.483504D-18    0.148854D-17    0.846831D-15    0.468100D+00
   0   162    0.238152D-18    0.735429D-18    0.696684D-15    0.468100D+00
   0   163    0.116920D-18    0.363262D-18    0.295292D-15    0.468100D+00
   0   164    0.570023D-19    0.177138D-18    0.103282D-15    0.468100D+00
   0   165    0.277345D-19    0.872638D-19    0.871971D-16    0.468100D+00
   0   166    0.137127D-19    0.426803D-19    0.336456D-16    0.468100D+00
   0   167    0.671423D-20    0.209364D-19    0.164381D-16    0.468100D+00
   0   168    0.330690D-20    0.102406D-19    0.669650D-17    0.468100D+00
   0   169    0.160919D-20    0.502521D-20    0.392682D-17    0.468100D+00
   0   170    0.791236D-21    0.246065D-20    0.226467D-17    0.468100D+00
   0   171    0.384957D-21    0.120031D-20    0.978399D-18    0.468100D+00
   0   172    0.188177D-21    0.588683D-21    0.298138D-18    0.468100D+00
   0   173    0.920682D-22    0.288525D-21    0.190005D-18    0.468100D+00
   0   174    0.450352D-22    0.141344D-21    0.145488D-18    0.468100D+00
   0   175    0.223716D-22    0.694909D-22    0.347693D-19    0.468100D+00
   0   176    0.109721D-22    0.339772D-22    0.201126D-19    0.468100D+00
   0   177    0.536884D-23    0.165856D-22    0.128293D-19    0.468100D+00
   0   178    0.263515D-23    0.809926D-23    0.400452D-20    0.468100D+00
   0   179    0.127656D-23    0.395395D-23    0.271735D-20    0.468100D+00
   0   180    0.617363D-24    0.192902D-23    0.141520D-20    0.468100D+00
   0   181    0.301365D-24    0.943850D-24    0.532584D-21    0.468100D+00
   0   182    0.148465D-24    0.463600D-24    0.413600D-21    0.468100D+00
   0   183    0.726048D-25    0.227787D-24    0.133732D-21    0.468100D+00
   0   184    0.358497D-25    0.111831D-24    0.105942D-21    0.468100D+00
   0   185    0.175320D-25    0.546208D-25    0.546402D-22    0.468100D+00
   0   186    0.864425D-26    0.267516D-25    0.246454D-22    0.468100D+00
   0   187    0.422295D-26    0.131197D-25    0.123819D-22    0.468100D+00
   0   188    0.205377D-26    0.638875D-26    0.411115D-23    0.468100D+00
   0   189    0.100395D-26    0.311988D-26    0.191050D-23    0.468100D+00
   0   190    0.497076D-27    0.153529D-26    0.148753D-23    0.468100D+00
   0   191    0.240892D-27    0.752761D-27    0.680337D-24    0.468100D+00
   0   192    0.119068D-27    0.367861D-27    0.160280D-24    0.468100D+00
   0   193    0.581091D-28    0.180047D-27    0.141203D-24    0.468100D+00
   0   194    0.285169D-28    0.874456D-28    0.778399D-25    0.468100D+00
   0   195    0.139424D-28    0.428817D-28    0.284663D-25    0.468100D+00
   0   196    0.676992D-29    0.208436D-28    0.179149D-25    0.468100D+00
   0   197    0.326736D-29    0.101622D-28    0.510921D-26    0.468100D+00
   0   198    0.157554D-29    0.494337D-29    0.376372D-26    0.468100D+00
   0   199    0.775237D-30    0.240445D-29    0.155930D-26    0.468100D+00
   0   200    0.377397D-30    0.117528D-29    0.994215D-27    0.468100D+00
   0   201    0.184210D-30    0.570137D-30    0.342859D-27    0.468100D+00
   0   202    0.901045D-31    0.279365D-30    0.289822D-27    0.468100D+00
   0   203    0.440320D-31    0.135698D-30    0.120712D-27    0.468100D+00
   0   204    0.212544D-31    0.654320D-31    0.511176D-28    0.468100D+00
   0   205    0.103060D-31    0.316162D-31    0.160376D-28    0.468100D+00
   0   206    0.499336D-32    0.153845D-31    0.824416D-29    0.468100D+00
   0   207    0.242075D-32    0.743412D-32    0.641768D-29    0.468100D+00
   0   208    0.115916D-32    0.357447D-32    0.266316D-29    0.468100D+00
   0   209    0.552756D-33    0.171436D-32    0.132136D-29    0.468100D+00
   0   210    0.266855D-33    0.826666D-33    0.788718D-30    0.468100D+00
   0   211    0.130576D-33    0.399893D-33    0.321980D-30    0.468100D+00
   0   212    0.626430D-34    0.193800D-33    0.114675D-30    0.468100D+00
   0   213    0.302061D-34    0.926481D-34    0.601801D-31    0.468100D+00
   0   214    0.144220D-34    0.444083D-34    0.409057D-31    0.468100D+00
   0   215    0.692469D-35    0.213057D-34    0.168019D-31    0.468100D+00
   0   216    0.329814D-35    0.101447D-34    0.897896D-32    0.468100D+00
   0   217    0.157829D-35    0.483549D-35    0.334790D-32    0.468100D+00
   0   218    0.746763D-36    0.230482D-35    0.174905D-32    0.468100D+00
   0   219    0.353168D-36    0.109230D-35    0.927295D-33    0.468100D+00
   0   220    0.166374D-36    0.516714D-36    0.395190D-33    0.468100D+00
   0   221    0.783887D-37    0.244909D-36    0.209195D-33    0.468100D+00
   0   222    0.373046D-37    0.115816D-36    0.975239D-34    0.468100D+00
   0   223    0.177158D-37    0.547000D-37    0.429482D-34    0.468100D+00
   0   224    0.840368D-38    0.258113D-37    0.239955D-34    0.468100D+00
   0   225    0.397110D-38    0.121387D-37    0.103310D-34    0.468100D+00
   0   226    0.186581D-38    0.572505D-38    0.375575D-35    0.468100D+00
   0   227    0.871077D-39    0.268298D-38    0.279193D-35    0.468100D+00
   0   228    0.409751D-39    0.126063D-38    0.101900D-35    0.468100D+00
   0   229    0.190183D-39    0.585543D-39    0.426751D-36    0.468100D+00
   0   230    0.880188D-40    0.272468D-39    0.213255D-36    0.468100D+00
   0   231    0.408936D-40    0.126797D-39    0.137000D-36    0.468100D+00
   0   232    0.189441D-40    0.583964D-40    0.531674D-37    0.468100D+00
   0   233    0.887705D-41    0.272792D-40    0.204180D-37    0.468100D+00
   0   234    0.409136D-41    0.125866D-40    0.143115D-37    0.468100D+00
   0   235    0.189634D-41    0.581090D-41    0.617931D-38    0.468100D+00
   0   236    0.878753D-42    0.266515D-41    0.232294D-38    0.468100D+00
   0   237    0.400593D-42    0.122872D-41    0.103487D-38    0.468100D+00
   0   238    0.185909D-42    0.567010D-42    0.479601D-39    0.468100D+00
   0   239    0.852711D-43    0.260346D-42    0.279842D-39    0.468100D+00
   0   240    0.387161D-43    0.118184D-42    0.967048D-40    0.468100D+00
   0   241    0.176869D-43    0.539517D-43    0.575806D-40    0.468100D+00
   0   242    0.799664D-44    0.246057D-43    0.288385D-40    0.468100D+00
   0   243    0.366414D-44    0.112238D-43    0.114112D-40    0.468100D+00
   0   244    0.167724D-44    0.509987D-44    0.452586D-41    0.468100D+00
   0   245    0.751174D-45    0.230430D-44    0.242646D-41    0.468100D+00
   0   246    0.339645D-45    0.103749D-44    0.113613D-41    0.468100D+00
   0   247    0.153674D-45    0.467796D-45    0.359390D-42    0.468100D+00
   0   248    0.684932D-46    0.210907D-45    0.208186D-42    0.468100D+00
   0   249    0.313515D-46    0.945361D-46    0.697492D-43    0.468100D+00
   0   250    0.140325D-46    0.421011D-46    0.324386D-43    0.468100D+00
   0   251    0.617076D-47    0.188065D-46    0.169046D-43    0.468100D+00
   0   252    0.275530D-47    0.833175D-47    0.670610D-44    0.468100D+00
   0   253    0.120831D-47    0.369307D-47    0.379320D-44    0.468100D+00
   0   254    0.537958D-48    0.164228D-47    0.208480D-44    0.468100D+00
   0   255    0.241704D-48    0.734618D-48    0.696770D-45    0.468100D+00
   0   256    0.106758D-48    0.325367D-48    0.292588D-45    0.468100D+00
   0   257    0.473781D-49    0.142893D-48    0.147582D-45    0.468100D+00
   0   258    0.205831D-49    0.624138D-49    0.595139D-46    0.468100D+00
   0   259    0.890861D-50    0.270848D-49    0.327700D-46    0.468100D+00
   0   260    0.389519D-50    0.118559D-49    0.105851D-46    0.468100D+00
   0   261    0.170067D-50    0.518814D-50    0.519157D-47    0.468100D+00
   0   262    0.752859D-51    0.226304D-50    0.211653D-47    0.468100D+00
   0   263    0.325439D-51    0.981580D-51    0.125294D-47    0.468100D+00
   0   264    0.141831D-51    0.426473D-51    0.523501D-48    0.468100D+00
   0   265    0.606695D-52    0.183399D-51    0.195280D-48    0.468100D+00
   0   266    0.261871D-52    0.788222D-52    0.103199D-48    0.468100D+00
   0   267    0.112226D-52    0.339124D-52    0.476518D-49    0.468100D+00
   0   268    0.477787D-53    0.144411D-52    0.197117D-49    0.468100D+00
   0   269    0.205247D-53    0.615936D-53    0.815212D-50    0.468100D+00
   0   270    0.879328D-54    0.263942D-53    0.300063D-50    0.468100D+00
   0   271    0.371841D-54    0.112487D-53    0.106223D-50    0.468100D+00
   0   272    0.159422D-54    0.474537D-54    0.554776D-51    0.468100D+00
   0   273    0.677898D-55    0.203225D-54    0.225829D-51    0.468100D+00
   0   274    0.283476D-55    0.855239D-55    0.884905D-52    0.468100D+00
   0   275    0.119020D-55    0.359246D-55    0.338414D-52    0.468100D+00
   0   276    0.504617D-56    0.151780D-55    0.142125D-52    0.468100D+00
   0   277    0.208040D-56    0.635248D-56    0.929918D-53    0.468100D+00
   0   278    0.878077D-57    0.264305D-56    0.355850D-53    0.468100D+00
   0   279    0.366833D-57    0.110119D-56    0.125128D-53    0.468100D+00
   0   280    0.152091D-57    0.457149D-57    0.553591D-54    0.468100D+00
   0   281    0.631910D-58    0.191039D-57    0.194591D-54    0.468100D+00
   0   282    0.262041D-58    0.792004D-58    0.118869D-54    0.468100D+00
   0   283    0.109630D-58    0.328466D-58    0.327052D-55    0.468100D+00
   0   284    0.450102D-59    0.135090D-58    0.183851D-55    0.468100D+00
   0   285    0.186738D-59    0.553932D-59    0.794492D-56    0.468100D+00
   0   286    0.764025D-60    0.227686D-59    0.323845D-56    0.468100D+00
   0   287    0.311361D-60    0.937498D-60    0.102433D-56    0.468100D+00
   0   288    0.127792D-60    0.381766D-60    0.519920D-57    0.468100D+00
   0   289    0.517394D-61    0.155691D-60    0.227449D-57    0.468100D+00
   0   290    0.211259D-61    0.635284D-61    0.766462D-58    0.468100D+00
   0   291    0.842959D-62    0.255815D-61    0.428075D-58    0.468100D+00
   0   292    0.345925D-62    0.103008D-61    0.154179D-58    0.468100D+00
   0   293    0.140710D-62    0.416013D-62    0.610598D-59    0.468100D+00
   0   294    0.558536D-63    0.167215D-62    0.252247D-59    0.468100D+00
   0   295    0.226527D-63    0.673249D-63    0.819706D-60    0.468100D+00
   0   296    0.895922D-64    0.266583D-63    0.366645D-60    0.468100D+00
   0   297    0.360027D-64    0.106774D-63    0.132069D-60    0.468100D+00
   0   298    0.142738D-64    0.427141D-64    0.510515D-61    0.468100D+00
   0   299    0.567966D-65    0.170009D-64    0.280534D-61    0.468100D+00
   0   300    0.226017D-65    0.673272D-65    0.905427D-62    0.468100D+00
   0   301    0.885047D-66    0.265787D-65    0.335550D-62    0.468100D+00
   0   302    0.353504D-66    0.104976D-65    0.153286D-62    0.468100D+00
   0   303    0.139271D-66    0.412874D-66    0.663660D-63    0.468100D+00
   0   304    0.547431D-67    0.161883D-66    0.233592D-63    0.468100D+00
   0   305    0.215659D-67    0.640460D-67    0.783539D-64    0.468100D+00
   0   306    0.839348D-68    0.250644D-67    0.354059D-64    0.468100D+00
   0   307    0.331557D-68    0.974778D-68    0.148708D-64    0.468100D+00
   0   308    0.127491D-68    0.381147D-68    0.558577D-65    0.468100D+00
   0   309    0.494161D-69    0.148219D-68    0.183797D-65    0.468100D+00
   0   310    0.189983D-69    0.567964D-69    0.894017D-66    0.468100D+00
   0   311    0.732010D-70    0.217961D-69    0.289780D-66    0.468100D+00
   0   312    0.280114D-70    0.834005D-70    0.141274D-66    0.468100D+00
   0   313    0.107607D-70    0.319709D-70    0.484756D-67    0.468100D+00
   0   314    0.409705D-71    0.122219D-70    0.159692D-67    0.468100D+00
   0   315    0.158343D-71    0.466022D-71    0.565143D-68    0.468100D+00
   0   316    0.596943D-72    0.177460D-71    0.301135D-68    0.468100D+00
   0   317    0.225422D-72    0.673644D-72    0.116459D-68    0.468100D+00
   0   318    0.866873D-73    0.255320D-72    0.326708D-69    0.468100D+00
   0   319    0.328422D-73    0.969095D-73    0.159744D-69    0.468100D+00
   0   320    0.123070D-73    0.366813D-73    0.570856D-70    0.468100D+00
   0   321    0.453129D-74    0.138130D-73    0.249794D-70    0.468100D+00
   0   322    0.174352D-74    0.515704D-74    0.720670D-71    0.468100D+00
   0   323    0.651685D-75    0.193710D-74    0.265338D-71    0.468100D+00
   0   324    0.240916D-75    0.717327D-75    0.120551D-71    0.468100D+00
   0   325    0.905321D-76    0.266671D-75    0.399618D-72    0.468100D+00
   0   326    0.337419D-76    0.998587D-76    0.186859D-72    0.468100D+00
   0   327    0.124262D-76    0.370081D-76    0.647181D-73    0.468100D+00
   0   328    0.456282D-77    0.136194D-76    0.256591D-73    0.468100D+00
   0   329    0.170054D-77    0.504976D-77    0.866853D-74    0.468100D+00
   0   330    0.627173D-78    0.185912D-77    0.328667D-74    0.468100D+00
   0   331    0.231800D-78    0.688628D-78    0.128313D-74    0.468100D+00
   0   332    0.845751D-79    0.252293D-78    0.503299D-75    0.468100D+00
   0   333    0.308808D-79    0.918673D-79    0.164499D-75    0.468100D+00
   0   334    0.114013D-79    0.335142D-79    0.573138D-76    0.468100D+00
   0   335    0.415639D-80    0.122747D-79    0.191249D-76    0.468100D+00
   0   336    0.149036D-80    0.445347D-80    0.922462D-77    0.468100D+00
   0   337    0.547024D-81    0.161712D-80    0.260849D-77    0.468100D+00
   0   338    0.198959D-81    0.584378D-81    0.991842D-78    0.468100D+00
   0   339    0.713450D-82    0.210749D-81    0.339704D-78    0.468100D+00
   0   340    0.257843D-82    0.763745D-82    0.149077D-78    0.468100D+00
   0   341    0.918763D-83    0.275376D-82    0.441672D-79    0.468100D+00
   0   342    0.325680D-83    0.977571D-83    0.207179D-79    0.468100D+00
   0   343    0.116277D-83    0.348067D-83    0.584854D-80    0.468100D+00
   0   344    0.413804D-84    0.124151D-83    0.252105D-80    0.468100D+00
   0   345    0.148535D-84    0.440081D-84    0.776838D-81    0.468100D+00
   0   346    0.531191D-85    0.155940D-84    0.267570D-81    0.468100D+00
   0   347    0.187122D-85    0.560538D-85    0.115408D-81    0.468100D+00
   0   348    0.675262D-86    0.198073D-85    0.318865D-82    0.468100D+00
   0   349    0.237583D-86    0.701828D-86    0.139043D-82    0.468100D+00
   0   350    0.834257D-87    0.247092D-86    0.431450D-83    0.468100D+00
   0   351    0.291573D-87    0.871667D-87    0.169730D-83    0.468100D+00
   0   352    0.103101D-87    0.302727D-87    0.612330D-84    0.468100D+00
   0   353    0.358464D-88    0.105634D-87    0.212715D-84    0.468100D+00
   0   354    0.125879D-88    0.368438D-88    0.709208D-85    0.468100D+00
   0   355    0.436945D-89    0.128494D-88    0.242622D-85    0.468100D+00
   0   356    0.151776D-89    0.447083D-89    0.860514D-86    0.468100D+00
   0   357    0.521051D-90    0.154351D-89    0.329475D-86    0.468100D+00
   0   358    0.180486D-90    0.532538D-90    0.101849D-86    0.468100D+00
   0   359    0.618028D-91    0.182826D-90    0.411018D-87    0.468100D+00
   0   360    0.210380D-91    0.623513D-91    0.139611D-87    0.468100D+00
   0   361    0.723692D-92    0.211651D-91    0.438745D-88    0.468100D+00
   0   362    0.250279D-92    0.728522D-92    0.158864D-88    0.468100D+00
   0   363    0.855182D-93    0.249732D-92    0.549191D-89    0.468100D+00
   0   364    0.291948D-93    0.850753D-93    0.144846D-89    0.468100D+00
   0   365    0.985543D-94    0.288594D-93    0.660097D-90    0.468100D+00
   0   366    0.334390D-94    0.973603D-94    0.170497D-90    0.468100D+00
   0   367    0.111973D-94    0.329939D-94    0.622056D-91    0.468100D+00
   0   368    0.372490D-95    0.110350D-94    0.233121D-91    0.468100D+00
   0   369    0.125612D-95    0.371966D-95    0.853256D-92    0.468100D+00
   0   370    0.422828D-96    0.125828D-95    0.259296D-92    0.468100D+00
   0   371    0.142151D-96    0.421372D-96    0.982158D-93    0.468100D+00
   0   372    0.475602D-97    0.139686D-96    0.291846D-93    0.468100D+00
   0   373    0.157688D-97    0.463926D-97    0.918862D-94    0.468100D+00
   0   374    0.519476D-98    0.153293D-97    0.363076D-94    0.468100D+00
   0   375    0.172541D-98    0.510854D-98    0.946587D-95    0.468100D+00
   0   376    0.573201D-99    0.169432D-98    0.386930D-95    0.468100D+00
   0   377    0.187546D-99    0.559648D-99    0.114546D-95    0.468100D+00
   0   378    0.623386-100    0.183835D-99    0.403876D-96    0.468100D+00
   0   379    0.203992-100    0.601276-100    0.130327D-96    0.468100D+00
   0   380    0.671104-101    0.197678-100    0.445333D-97    0.468100D+00
   0   381    0.220917-101    0.650560-101    0.124852D-97    0.468100D+00
   0   382    0.722001-102    0.213286-101    0.481519D-98    0.468100D+00
   0   383    0.234761-102    0.694116-102    0.172013D-98    0.468100D+00
   0   384    0.765284-103    0.225653-102    0.523910D-99    0.468100D+00
   0   385    0.249209-103    0.731515-103    0.165491D-99    0.468100D+00
   0   386    0.811054-104    0.238551-103    0.484745-100    0.468100D+00
   0   387    0.260768-104    0.766009-104    0.171920-100    0.468100D+00
   0   388    0.850181-105    0.248374-104    0.530703-101    0.468100D+00
   0   389    0.272401-105    0.804501-105    0.181278-101    0.468100D+00
   0   390    0.874312-106    0.259193-105    0.554246-102    0.468100D+00
   0   391    0.282516-106    0.824578-106    0.204498-102    0.468100D+00
   0   392    0.891525-107    0.263782-106    0.647808-103    0.468100D+00
   0   393    0.286904-107    0.844712-107    0.204146-103    0.468100D+00
   0   394    0.921128-108    0.268802-107    0.546539-104    0.468100D+00
   0   395    0.293676-108    0.855180-108    0.217594-104    0.468100D+00
   0   396    0.921686-109    0.271209-108    0.723419-105    0.468100D+00
   0   397    0.294784-109    0.854919-109    0.190207-105    0.468100D+00