variables =  "IG"  "JG"  "PHI"  "Temp."  "Latent_heat"  "mm"
ZONE  I=  401  J=  101
   0     0    0.100000D+01    0.946470D+00    0.715545D-05    0.467638D-01
   0     1    0.100000D+01    0.946470D+00   -0.101629D-05    0.467638D-01
   0     2    0.100000D+01    0.946759D+00   -0.952421D-05    0.458605D-01
   0     3    0.100000D+01    0.947333D+00   -0.787246D-04    0.440639D-01
   0     4    0.100000D+01    0.948185D+00   -0.628059D-04    0.413943D-01
   0     5    0.999999D+00    0.949303D+00   -0.572457D-03    0.378826D-01
   0     6    0.999998D+00    0.950671D+00   -0.537601D-03    0.335708D-01
   0     7    0.999996D+00    0.952271D+00    0.111354D-02    0.285129D-01
   0     8    0.999989D+00    0.954082D+00    0.122469D-01    0.227740D-01
   0     9    0.999975D+00    0.956077D+00    0.807885D-03    0.164294D-01
   0    10    0.999939D+00    0.958232D+00   -0.832967D-02    0.956448D-02
   0    11    0.999852D+00    0.960516D+00   -0.117623D+00    0.227762D-02
   0    12    0.999643D+00    0.962909D+00    0.306420D+00   -0.535168D-02
   0    13    0.999167D+00    0.965384D+00   -0.153749D+00   -0.132437D-01
   0    14    0.998056D+00    0.967881D+00    0.251476D+00   -0.212165D-01
   0    15    0.995490D+00    0.970430D+00   -0.427510D+01   -0.293442D-01
   0    16    0.989544D+00    0.973026D+00    0.191858D+01   -0.374471D-01
   0    17    0.976578D+00    0.975518D+00    0.674544D+01   -0.453020D-01
   0    18    0.949022D+00    0.978172D+00   -0.437712D+02   -0.548063D-01
   0    19    0.892092D+00    0.980621D+00    0.603197D+02   -0.607475D-01
   0    20    0.791316D+00    0.982409D+00   -0.117799D+03   -0.648853D-01
   0    21    0.644334D+00    0.979838D+00   -0.211592D+03   -0.629705D-01
   0    22    0.497403D+00    0.985789D+00    0.211241D+03   -0.695412D-01
   0    23    0.421384D+00    0.984346D+00   -0.225950D+03   -0.653036D-01
   0    24    0.442605D+00    0.984847D+00   -0.564333D+01   -0.734436D-01
   0    25    0.552052D+00    0.992929D+00    0.158311D+03   -0.942293D-01
   0    26    0.701416D+00    0.990936D+00   -0.875338D+02   -0.890699D-01
   0    27    0.822181D+00    0.996231D+00   -0.908379D+02   -0.106372D+00
   0    28    0.896907D+00    0.100002D+01    0.400894D+02   -0.118204D+00
   0    29    0.929809D+00    0.100433D+01    0.535653D+00   -0.131487D+00
   0    30    0.933291D+00    0.100795D+01    0.497826D+01   -0.140707D+00
   0    31    0.909977D+00    0.101134D+01   -0.333248D+02   -0.146398D+00
   0    32    0.860185D+00    0.101336D+01    0.477545D+02   -0.154919D+00
   0    33    0.783634D+00    0.101296D+01   -0.815381D+02   -0.151783D+00
   0    34    0.696398D+00    0.101410D+01    0.182903D+03   -0.151998D+00
   0    35    0.631772D+00    0.100506D+01    0.123817D+02   -0.136608D+00
   0    36    0.611898D+00    0.998734D+00   -0.374846D+02   -0.115891D+00
   0    37    0.640945D+00    0.997397D+00    0.105517D+03   -0.110468D+00
   0    38    0.693947D+00    0.100150D+01    0.162487D+03   -0.117629D+00
   0    39    0.745427D+00    0.100737D+01    0.105946D+03   -0.139435D+00
   0    40    0.777212D+00    0.100839D+01   -0.120724D+01   -0.140558D+00
   0    41    0.782550D+00    0.101242D+01    0.544236D+02   -0.151449D+00
   0    42    0.753778D+00    0.101689D+01    0.138279D+03   -0.160473D+00
   0    43    0.697251D+00    0.101087D+01   -0.134759D+03   -0.144869D+00
   0    44    0.623608D+00    0.100476D+01    0.185779D+03   -0.128150D+00
   0    45    0.553599D+00    0.994349D+00    0.129252D+03   -0.105883D+00
   0    46    0.499363D+00    0.986059D+00   -0.154018D+03   -0.781063D-01
   0    47    0.470731D+00    0.981073D+00   -0.416924D+02   -0.678690D-01
   0    48    0.466829D+00    0.975719D+00    0.122502D+03   -0.421045D-01
   0    49    0.484051D+00    0.970333D+00    0.846282D+02   -0.260935D-01
   0    50    0.504884D+00    0.972443D+00   -0.162845D+02   -0.333600D-01
   0    51    0.526875D+00    0.976082D+00    0.368684D+02   -0.412974D-01
   0    52    0.542962D+00    0.980460D+00   -0.343896D+02   -0.613833D-01
   0    53    0.556796D+00    0.980837D+00   -0.116465D+03   -0.533929D-01
   0    54    0.562761D+00    0.986436D+00    0.128588D+03   -0.747811D-01
   0    55    0.568900D+00    0.989332D+00    0.131583D+03   -0.892027D-01
   0    56    0.579226D+00    0.988248D+00   -0.197896D+03   -0.870171D-01
   0    57    0.588193D+00    0.987516D+00   -0.134817D+03   -0.862326D-01
   0    58    0.602281D+00    0.994177D+00    0.532022D+02   -0.992618D-01
   0    59    0.612832D+00    0.991334D+00    0.152565D+03   -0.963628D-01
   0    60    0.620493D+00    0.991223D+00    0.189219D+03   -0.983571D-01
   0    61    0.623109D+00    0.994447D+00    0.161685D+03   -0.989404D-01
   0    62    0.624383D+00    0.991693D+00   -0.499393D+01   -0.978606D-01
   0    63    0.618809D+00    0.992427D+00    0.840644D+02   -0.951179D-01
   0    64    0.610896D+00    0.994367D+00   -0.138162D+03   -0.972105D-01
   0    65    0.599793D+00    0.991321D+00   -0.539397D+02   -0.884388D-01
   0    66    0.584479D+00    0.989738D+00   -0.986105D+02   -0.835454D-01
   0    67    0.571771D+00    0.985905D+00   -0.150511D+03   -0.756285D-01
   0    68    0.562642D+00    0.983011D+00   -0.181291D+03   -0.737271D-01
   0    69    0.557807D+00    0.982781D+00    0.533169D+02   -0.736776D-01
   0    70    0.550911D+00    0.981530D+00    0.763731D+02   -0.658067D-01
   0    71    0.545841D+00    0.982874D+00   -0.102437D+03   -0.704082D-01
   0    72    0.550357D+00    0.981871D+00    0.538868D+02   -0.673568D-01
   0    73    0.547270D+00    0.978982D+00    0.130603D+03   -0.550276D-01
   0    74    0.548893D+00    0.983907D+00    0.969361D+02   -0.698779D-01
   0    75    0.546565D+00    0.983334D+00   -0.389078D+02   -0.744627D-01
   0    76    0.544415D+00    0.980645D+00   -0.103963D+03   -0.639276D-01
   0    77    0.541595D+00    0.981840D+00    0.125530D+03   -0.700622D-01
   0    78    0.532582D+00    0.980462D+00    0.180572D+03   -0.634047D-01
   0    79    0.530917D+00    0.976114D+00   -0.132183D+03   -0.484827D-01
   0    80    0.531440D+00    0.978666D+00    0.115359D+03   -0.544643D-01
   0    81    0.531903D+00    0.977275D+00   -0.450588D+02   -0.549180D-01
   0    82    0.533568D+00    0.975946D+00   -0.656146D+02   -0.496594D-01
   0    83    0.532301D+00    0.984090D+00   -0.123235D+02   -0.694839D-01
   0    84    0.532314D+00    0.980700D+00    0.176375D+03   -0.652261D-01
   0    85    0.529729D+00    0.979355D+00   -0.196415D+02   -0.569058D-01
   0    86    0.523928D+00    0.977929D+00    0.114866D+03   -0.592946D-01
   0    87    0.522192D+00    0.983479D+00   -0.400073D+02   -0.663873D-01
   0    88    0.515346D+00    0.981280D+00   -0.177323D+03   -0.625361D-01
   0    89    0.507792D+00    0.976405D+00   -0.985008D+02   -0.437541D-01
   0    90    0.501938D+00    0.975459D+00    0.185600D+03   -0.426111D-01
   0    91    0.495817D+00    0.973827D+00   -0.112157D+03   -0.318566D-01
   0    92    0.489592D+00    0.972457D+00    0.170254D+03   -0.388892D-01
   0    93    0.492687D+00    0.971700D+00   -0.125025D+02   -0.343870D-01
   0    94    0.499831D+00    0.972887D+00    0.513197D+02   -0.370316D-01
   0    95    0.509938D+00    0.976229D+00    0.179954D+03   -0.490177D-01
   0    96    0.523374D+00    0.976967D+00   -0.159487D+03   -0.570432D-01
   0    97    0.533938D+00    0.978354D+00   -0.188703D+03   -0.611157D-01
   0    98    0.543494D+00    0.980510D+00   -0.461370D+02   -0.607447D-01
   0    99    0.554826D+00    0.981841D+00   -0.162454D+03   -0.677631D-01
   0   100    0.557174D+00    0.985708D+00   -0.896176D+02   -0.788938D-01
   0   101    0.562760D+00    0.983431D+00   -0.331107D+02   -0.752018D-01
   0   102    0.562604D+00    0.984785D+00   -0.138068D+03   -0.766781D-01
   0   103    0.564691D+00    0.984072D+00    0.813817D+02   -0.707321D-01
   0   104    0.567898D+00    0.982781D+00    0.791908D+02   -0.736445D-01
   0   105    0.572271D+00    0.984488D+00    0.318048D+02   -0.755953D-01
   0   106    0.577923D+00    0.986533D+00    0.631590D+01   -0.810197D-01
   0   107    0.586643D+00    0.985322D+00    0.342213D+02   -0.713812D-01
   0   108    0.592463D+00    0.991916D+00    0.650395D+02   -0.966638D-01
   0   109    0.599035D+00    0.990681D+00    0.870818D+01   -0.925810D-01
   0   110    0.600585D+00    0.989297D+00   -0.130471D+03   -0.904169D-01
   0   111    0.609358D+00    0.989716D+00    0.784662D+01   -0.866863D-01
   0   112    0.608633D+00    0.989438D+00   -0.102094D+03   -0.814319D-01
   0   113    0.609165D+00    0.990947D+00   -0.182192D+03   -0.981650D-01
   0   114    0.602861D+00    0.992064D+00    0.338938D+02   -0.999340D-01
   0   115    0.602430D+00    0.992069D+00   -0.699732D+02   -0.101480D+00
   0   116    0.592881D+00    0.990906D+00    0.121006D+03   -0.908137D-01
   0   117    0.592278D+00    0.992627D+00   -0.187145D+02   -0.940939D-01
   0   118    0.597117D+00    0.989168D+00   -0.145087D+03   -0.830258D-01
   0   119    0.602593D+00    0.995099D+00   -0.405491D+02   -0.104064D+00
   0   120    0.612523D+00    0.989884D+00   -0.170531D+03   -0.918371D-01
   0   121    0.626521D+00    0.997381D+00    0.168522D+03   -0.108040D+00
   0   122    0.637174D+00    0.998881D+00   -0.524316D+02   -0.111894D+00
   0   123    0.644420D+00    0.997613D+00   -0.130235D+03   -0.111501D+00
   0   124    0.650795D+00    0.996635D+00   -0.824408D+02   -0.114418D+00
   0   125    0.647757D+00    0.993148D+00   -0.613996D+02   -0.988192D-01
   0   126    0.641450D+00    0.998163D+00    0.150310D+03   -0.108790D+00
   0   127    0.637305D+00    0.997966D+00   -0.409716D+01   -0.107076D+00
   0   128    0.626279D+00    0.993381D+00    0.150218D+03   -0.104439D+00
   0   129    0.616968D+00    0.992044D+00    0.149937D+02   -0.984621D-01
   0   130    0.608156D+00    0.989656D+00   -0.683842D+02   -0.942948D-01
   0   131    0.598240D+00    0.989134D+00   -0.142319D+03   -0.909324D-01
   0   132    0.592443D+00    0.991499D+00   -0.992303D+02   -0.903924D-01
   0   133    0.586887D+00    0.988315D+00   -0.188451D+03   -0.822793D-01
   0   134    0.583462D+00    0.985009D+00    0.535829D+02   -0.707232D-01
   0   135    0.581194D+00    0.985511D+00   -0.699459D+02   -0.832494D-01
   0   136    0.580801D+00    0.985420D+00   -0.383707D+02   -0.751754D-01
   0   137    0.578281D+00    0.988700D+00    0.209995D+03   -0.874840D-01
   0   138    0.577368D+00    0.985173D+00   -0.139287D+03   -0.777441D-01
   0   139    0.576770D+00    0.983912D+00   -0.472915D+02   -0.748753D-01
   0   140    0.577365D+00    0.981154D+00   -0.209898D+03   -0.648469D-01
   0   141    0.571788D+00    0.984361D+00   -0.951376D+02   -0.741156D-01
   0   142    0.569790D+00    0.982762D+00   -0.182985D+03   -0.646401D-01
   0   143    0.569877D+00    0.982116D+00   -0.860990D+02   -0.628859D-01
   0   144    0.566306D+00    0.983357D+00   -0.141002D+03   -0.638864D-01
   0   145    0.564601D+00    0.984285D+00    0.709135D+02   -0.667513D-01
   0   146    0.560529D+00    0.984080D+00    0.101423D+02   -0.759690D-01
   0   147    0.559787D+00    0.982776D+00    0.112025D+03   -0.703583D-01
   0   148    0.557638D+00    0.985772D+00   -0.738317D+01   -0.767887D-01
   0   149    0.553230D+00    0.986669D+00   -0.129830D+03   -0.756646D-01
   0   150    0.556306D+00    0.982512D+00   -0.164416D+03   -0.630677D-01
   0   151    0.552799D+00    0.983866D+00   -0.183020D+03   -0.648164D-01
   0   152    0.550699D+00    0.980291D+00    0.417575D+01   -0.578316D-01
   0   153    0.551731D+00    0.977413D+00   -0.106262D+03   -0.540667D-01
   0   154    0.555468D+00    0.984289D+00    0.108934D+03   -0.689841D-01
   0   155    0.551964D+00    0.981935D+00   -0.301081D+02   -0.708125D-01
   0   156    0.552178D+00    0.979142D+00    0.132570D+03   -0.583289D-01
   0   157    0.553468D+00    0.979601D+00   -0.110166D+03   -0.641300D-01
   0   158    0.556794D+00    0.979295D+00   -0.555641D+02   -0.623496D-01
   0   159    0.557350D+00    0.981988D+00   -0.148637D+03   -0.665534D-01
   0   160    0.563214D+00    0.983429D+00    0.109941D+03   -0.736104D-01
   0   161    0.567009D+00    0.982158D+00    0.100933D+03   -0.705509D-01
   0   162    0.568895D+00    0.982306D+00   -0.976587D+02   -0.704232D-01
   0   163    0.570588D+00    0.987299D+00    0.159898D+03   -0.779714D-01
   0   164    0.573962D+00    0.983601D+00   -0.192386D+03   -0.739561D-01
   0   165    0.574280D+00    0.983727D+00    0.146851D+03   -0.635445D-01
   0   166    0.575569D+00    0.986156D+00   -0.166227D+03   -0.859159D-01
   0   167    0.579334D+00    0.982126D+00   -0.103023D+03   -0.679159D-01
   0   168    0.581883D+00    0.983938D+00   -0.106425D+03   -0.735000D-01
   0   169    0.581124D+00    0.981403D+00    0.397052D+02   -0.621671D-01
   0   170    0.578236D+00    0.982237D+00   -0.251071D+02   -0.582178D-01
   0   171    0.576592D+00    0.981760D+00    0.966214D+02   -0.655902D-01
   0   172    0.577591D+00    0.984657D+00   -0.306256D+02   -0.668878D-01
   0   173    0.576861D+00    0.984722D+00   -0.217601D+03   -0.684426D-01
   0   174    0.574294D+00    0.985436D+00    0.658856D+02   -0.734918D-01
   0   175    0.574564D+00    0.985663D+00   -0.108277D+03   -0.778579D-01
   0   176    0.574054D+00    0.987167D+00   -0.183763D+03   -0.773048D-01
   0   177    0.573778D+00    0.986777D+00   -0.170928D+03   -0.794867D-01
   0   178    0.575368D+00    0.983832D+00    0.159540D+03   -0.762492D-01
   0   179    0.580523D+00    0.988228D+00   -0.221828D+03   -0.835144D-01
   0   180    0.578308D+00    0.987298D+00    0.677304D+02   -0.798327D-01
   0   181    0.583628D+00    0.985398D+00   -0.607223D+01   -0.775354D-01
   0   182    0.582396D+00    0.983299D+00    0.318889D+02   -0.683416D-01
   0   183    0.581349D+00    0.988294D+00    0.116808D+03   -0.833177D-01
   0   184    0.580944D+00    0.986770D+00    0.226545D+03   -0.782820D-01
   0   185    0.583074D+00    0.985100D+00   -0.610105D+02   -0.706683D-01
   0   186    0.583114D+00    0.984663D+00    0.758265D+02   -0.796470D-01
   0   187    0.585196D+00    0.985037D+00   -0.103401D+03   -0.769020D-01
   0   188    0.582889D+00    0.984167D+00   -0.479666D+02   -0.737661D-01
   0   189    0.585478D+00    0.985094D+00   -0.396813D+02   -0.750797D-01
   0   190    0.580014D+00    0.987825D+00   -0.111868D+03   -0.827802D-01
   0   191    0.581361D+00    0.987334D+00    0.217185D+02   -0.874664D-01
   0   192    0.579976D+00    0.985798D+00    0.202169D+03   -0.771780D-01
   0   193    0.579990D+00    0.982999D+00    0.143051D+03   -0.721314D-01
   0   194    0.583726D+00    0.986121D+00    0.400950D+02   -0.726070D-01
   0   195    0.583357D+00    0.987093D+00    0.101335D+03   -0.855427D-01
   0   196    0.583985D+00    0.989730D+00   -0.916764D+01   -0.912137D-01
   0   197    0.580167D+00    0.990309D+00   -0.353321D+02   -0.900157D-01
   0   198    0.580342D+00    0.985974D+00    0.597939D+02   -0.785728D-01
   0   199    0.578510D+00    0.984097D+00   -0.110457D+03   -0.709753D-01
   0   200    0.577465D+00    0.986856D+00    0.147523D+03   -0.791461D-01
   0   201    0.576782D+00    0.982579D+00   -0.966331D+02   -0.685927D-01
   0   202    0.579859D+00    0.985281D+00    0.107703D+03   -0.745256D-01
   0   203    0.574900D+00    0.988476D+00   -0.563476D+02   -0.854743D-01
   0   204    0.577206D+00    0.984458D+00    0.337965D+02   -0.698063D-01
   0   205    0.581948D+00    0.986766D+00   -0.287833D+02   -0.781216D-01
   0   206    0.582533D+00    0.989698D+00    0.949909D+02   -0.861130D-01
   0   207    0.579954D+00    0.985860D+00   -0.700343D+02   -0.764915D-01
   0   208    0.580145D+00    0.986588D+00    0.203157D+03   -0.752311D-01
   0   209    0.581552D+00    0.984161D+00   -0.107225D+02   -0.753983D-01
   0   210    0.579695D+00    0.984821D+00    0.199475D+03   -0.741083D-01
   0   211    0.581094D+00    0.981882D+00    0.126215D+03   -0.670235D-01
   0   212    0.577025D+00    0.983605D+00    0.202208D+03   -0.693676D-01
   0   213    0.576134D+00    0.984533D+00    0.823023D+02   -0.667222D-01
   0   214    0.579437D+00    0.982441D+00   -0.229167D+03   -0.682652D-01
   0   215    0.574307D+00    0.986715D+00    0.154072D+03   -0.854067D-01
   0   216    0.576597D+00    0.987420D+00   -0.122399D+03   -0.755746D-01
   0   217    0.574349D+00    0.984999D+00    0.160972D+02   -0.809782D-01
   0   218    0.576251D+00    0.982958D+00    0.104495D+03   -0.690846D-01
   0   219    0.574677D+00    0.983719D+00   -0.136523D+03   -0.769811D-01
   0   220    0.580318D+00    0.985397D+00   -0.455991D+02   -0.825924D-01
   0   221    0.577094D+00    0.984095D+00    0.960529D+02   -0.769172D-01
   0   222    0.573539D+00    0.985676D+00    0.151327D+03   -0.828522D-01
   0   223    0.573337D+00    0.987301D+00   -0.987410D+02   -0.887825D-01
   0   224    0.572185D+00    0.984695D+00    0.129219D+03   -0.775255D-01
   0   225    0.570075D+00    0.988698D+00    0.254233D+02   -0.821651D-01
   0   226    0.569056D+00    0.982357D+00   -0.983262D+02   -0.646368D-01
   0   227    0.567949D+00    0.981399D+00    0.130302D+03   -0.626391D-01
   0   228    0.567340D+00    0.987190D+00    0.697987D+02   -0.766944D-01
   0   229    0.570597D+00    0.982381D+00    0.161966D+03   -0.673769D-01
   0   230    0.574641D+00    0.985063D+00    0.160262D+03   -0.677633D-01
   0   231    0.574398D+00    0.983314D+00    0.549026D+02   -0.677689D-01
   0   232    0.580433D+00    0.985503D+00    0.101389D+03   -0.708442D-01
   0   233    0.579183D+00    0.988663D+00    0.813378D+02   -0.818582D-01
   0   234    0.579642D+00    0.988415D+00   -0.863885D+02   -0.834366D-01
   0   235    0.580002D+00    0.986797D+00   -0.225983D+03   -0.848053D-01
   0   236    0.578393D+00    0.985652D+00   -0.893319D+02   -0.756664D-01
   0   237    0.576957D+00    0.983219D+00   -0.719289D+02   -0.726184D-01
   0   238    0.576428D+00    0.984810D+00    0.228328D+03   -0.810663D-01
   0   239    0.578302D+00    0.984564D+00   -0.118865D+02   -0.731459D-01
   0   240    0.577170D+00    0.987968D+00    0.149746D+03   -0.784844D-01
   0   241    0.575496D+00    0.986080D+00    0.134483D+02   -0.812816D-01
   0   242    0.579036D+00    0.984255D+00   -0.267389D+02   -0.778222D-01
   0   243    0.575817D+00    0.985378D+00   -0.113146D+03   -0.696863D-01
   0   244    0.574075D+00    0.984143D+00    0.140466D+03   -0.742052D-01
   0   245    0.575949D+00    0.987483D+00    0.216660D+02   -0.764012D-01
   0   246    0.576874D+00    0.988195D+00    0.120518D+03   -0.803042D-01
   0   247    0.577103D+00    0.987145D+00   -0.134547D+03   -0.830648D-01
   0   248    0.578484D+00    0.984895D+00   -0.242645D+02   -0.743335D-01
   0   249    0.579943D+00    0.990372D+00    0.130363D+03   -0.906334D-01
   0   250    0.576869D+00    0.985907D+00    0.129064D+03   -0.819635D-01
   0   251    0.579806D+00    0.987646D+00    0.175273D+03   -0.757898D-01
   0   252    0.581678D+00    0.984142D+00    0.611385D+02   -0.746935D-01
   0   253    0.580319D+00    0.983535D+00   -0.598507D+02   -0.739434D-01
   0   254    0.578274D+00    0.987623D+00    0.174281D+03   -0.792547D-01
   0   255    0.575123D+00    0.987810D+00   -0.142280D+03   -0.796408D-01
   0   256    0.578301D+00    0.988317D+00   -0.438950D+02   -0.801060D-01
   0   257    0.577366D+00    0.983215D+00   -0.180162D+03   -0.744249D-01
   0   258    0.578041D+00    0.984797D+00    0.444125D+02   -0.720248D-01
   0   259    0.576736D+00    0.986523D+00    0.115021D+03   -0.732116D-01
   0   260    0.572772D+00    0.985920D+00    0.177397D+03   -0.751859D-01
   0   261    0.574669D+00    0.984783D+00   -0.182050D+03   -0.684811D-01
   0   262    0.572566D+00    0.983920D+00    0.161867D+03   -0.722858D-01
   0   263    0.578828D+00    0.984981D+00    0.153754D+03   -0.737538D-01
   0   264    0.578186D+00    0.985041D+00    0.172679D+03   -0.708939D-01
   0   265    0.580649D+00    0.984244D+00   -0.198344D+02   -0.753022D-01
   0   266    0.578565D+00    0.985127D+00   -0.155622D+03   -0.718725D-01
   0   267    0.577726D+00    0.985455D+00    0.209043D+03   -0.764357D-01
   0   268    0.578787D+00    0.985022D+00    0.156573D+03   -0.704397D-01
   0   269    0.578516D+00    0.986185D+00    0.164278D+03   -0.775210D-01
   0   270    0.579082D+00    0.984907D+00   -0.988335D+02   -0.673374D-01
   0   271    0.575716D+00    0.986750D+00    0.145561D+03   -0.843301D-01
   0   272    0.576370D+00    0.987105D+00    0.970190D+02   -0.761925D-01
   0   273    0.577918D+00    0.986652D+00   -0.496579D+02   -0.736325D-01
   0   274    0.579139D+00    0.988797D+00   -0.253369D+02   -0.843118D-01
   0   275    0.582001D+00    0.984039D+00    0.975372D+02   -0.714218D-01
   0   276    0.584104D+00    0.985225D+00    0.142388D+03   -0.808769D-01
   0   277    0.582326D+00    0.983826D+00   -0.200974D+03   -0.756058D-01
   0   278    0.583720D+00    0.989051D+00   -0.194174D+03   -0.853458D-01
   0   279    0.579741D+00    0.986398D+00   -0.147967D+03   -0.725588D-01
   0   280    0.578330D+00    0.986214D+00   -0.835172D+02   -0.723083D-01
   0   281    0.577627D+00    0.987096D+00   -0.798816D+02   -0.772377D-01
   0   282    0.577282D+00    0.985437D+00    0.945725D+02   -0.784394D-01
   0   283    0.574956D+00    0.987670D+00    0.129017D+03   -0.834764D-01
   0   284    0.577718D+00    0.985850D+00   -0.162346D+03   -0.801072D-01
   0   285    0.578349D+00    0.989860D+00    0.101226D+03   -0.849966D-01
   0   286    0.576909D+00    0.986028D+00    0.194575D+03   -0.712114D-01
   0   287    0.575511D+00    0.985024D+00   -0.100302D+03   -0.708050D-01
   0   288    0.574213D+00    0.987682D+00   -0.991839D+02   -0.809124D-01
   0   289    0.575925D+00    0.983996D+00   -0.378521D+02   -0.760568D-01
   0   290    0.575452D+00    0.982026D+00   -0.935700D+02   -0.624883D-01
   0   291    0.575528D+00    0.984156D+00   -0.200312D+03   -0.771030D-01
   0   292    0.575450D+00    0.984776D+00    0.146751D+03   -0.800539D-01
   0   293    0.576783D+00    0.988813D+00   -0.975458D+02   -0.826733D-01
   0   294    0.577482D+00    0.986415D+00    0.124944D+02   -0.851048D-01
   0   295    0.574590D+00    0.985855D+00    0.725132D+01   -0.683809D-01
   0   296    0.574128D+00    0.987483D+00   -0.922956D+02   -0.832795D-01
   0   297    0.571604D+00    0.987260D+00    0.146279D+03   -0.860466D-01
   0   298    0.572874D+00    0.984036D+00    0.568584D+02   -0.677284D-01
   0   299    0.577953D+00    0.985329D+00   -0.216334D+02   -0.751994D-01
   0   300    0.577222D+00    0.987555D+00    0.680163D+02   -0.772186D-01
   0   301    0.578604D+00    0.988054D+00   -0.199119D+02   -0.795912D-01
   0   302    0.575000D+00    0.983819D+00    0.222745D+03   -0.685936D-01
   0   303    0.573504D+00    0.981712D+00    0.214910D+03   -0.699329D-01
   0   304    0.577567D+00    0.984747D+00   -0.569531D+02   -0.670935D-01
   0   305    0.576444D+00    0.985821D+00    0.131555D+03   -0.715175D-01
   0   306    0.575083D+00    0.983902D+00    0.607050D+02   -0.703256D-01
   0   307    0.575288D+00    0.986821D+00   -0.993442D+02   -0.846226D-01
   0   308    0.573994D+00    0.985988D+00    0.251502D+03   -0.842372D-01
   0   309    0.575558D+00    0.985850D+00    0.107301D+03   -0.768279D-01
   0   310    0.580767D+00    0.984309D+00   -0.162838D+03   -0.739891D-01
   0   311    0.581042D+00    0.983760D+00   -0.981890D+00   -0.728230D-01
   0   312    0.577621D+00    0.988079D+00   -0.142914D+03   -0.888082D-01
   0   313    0.575766D+00    0.988698D+00    0.846102D+02   -0.880376D-01
   0   314    0.573714D+00    0.986898D+00   -0.187343D+03   -0.834291D-01
   0   315    0.572675D+00    0.985526D+00    0.257602D+03   -0.778097D-01
   0   316    0.579133D+00    0.985941D+00    0.697081D+02   -0.795642D-01
   0   317    0.577516D+00    0.984586D+00    0.146974D+03   -0.646340D-01
   0   318    0.579612D+00    0.986434D+00   -0.213096D+02   -0.736972D-01
   0   319    0.581931D+00    0.990951D+00   -0.231009D+03   -0.882171D-01
   0   320    0.577917D+00    0.985625D+00    0.846154D+02   -0.701126D-01
   0   321    0.578604D+00    0.983366D+00   -0.863427D+02   -0.714224D-01
   0   322    0.576481D+00    0.981153D+00   -0.199433D+03   -0.661216D-01
   0   323    0.575627D+00    0.986022D+00   -0.799023D+01   -0.710742D-01
   0   324    0.574043D+00    0.983619D+00   -0.182131D+02   -0.729677D-01
   0   325    0.571183D+00    0.985402D+00    0.108006D+02   -0.703281D-01
   0   326    0.572060D+00    0.984387D+00    0.945056D+02   -0.664549D-01
   0   327    0.575123D+00    0.983763D+00   -0.185702D+03   -0.707755D-01
   0   328    0.574063D+00    0.983859D+00   -0.775871D+02   -0.757427D-01
   0   329    0.571484D+00    0.985755D+00   -0.324315D+02   -0.745012D-01
   0   330    0.569705D+00    0.986220D+00    0.199157D+03   -0.756392D-01
   0   331    0.571478D+00    0.984818D+00    0.109619D+03   -0.795139D-01
   0   332    0.571221D+00    0.982717D+00   -0.113987D+03   -0.678824D-01
   0   333    0.574821D+00    0.985665D+00    0.167349D+03   -0.793217D-01
   0   334    0.575413D+00    0.985105D+00   -0.125257D+02   -0.732474D-01
   0   335    0.574359D+00    0.983834D+00   -0.159104D+03   -0.658506D-01
   0   336    0.574624D+00    0.983202D+00    0.132322D+03   -0.751295D-01
   0   337    0.573845D+00    0.986527D+00   -0.972212D+02   -0.808267D-01
   0   338    0.571305D+00    0.983075D+00    0.154214D+03   -0.688446D-01
   0   339    0.570847D+00    0.989457D+00    0.241914D+03   -0.865839D-01
   0   340    0.578214D+00    0.989978D+00   -0.122673D+01   -0.852185D-01
   0   341    0.574744D+00    0.982420D+00    0.108199D+03   -0.717042D-01
   0   342    0.575670D+00    0.985901D+00    0.181420D+03   -0.712100D-01
   0   343    0.572647D+00    0.989536D+00    0.992271D+01   -0.852357D-01
   0   344    0.573582D+00    0.988056D+00    0.234718D+03   -0.788301D-01
   0   345    0.576922D+00    0.984968D+00   -0.139065D+03   -0.670273D-01
   0   346    0.575091D+00    0.984182D+00   -0.332598D+01   -0.693361D-01
   0   347    0.576087D+00    0.980302D+00    0.119977D+03   -0.649639D-01
   0   348    0.575397D+00    0.982437D+00    0.149822D+03   -0.656601D-01
   0   349    0.577473D+00    0.985346D+00   -0.870113D+02   -0.712889D-01
   0   350    0.576537D+00    0.986811D+00   -0.829089D+02   -0.744543D-01
   0   351    0.574896D+00    0.986252D+00    0.162758D+03   -0.746244D-01
   0   352    0.573167D+00    0.985518D+00   -0.766102D+02   -0.764104D-01
   0   353    0.574941D+00    0.983487D+00   -0.137550D+03   -0.682166D-01
   0   354    0.571526D+00    0.984379D+00    0.194827D+03   -0.731920D-01
   0   355    0.572019D+00    0.984570D+00   -0.799665D+02   -0.799945D-01
   0   356    0.574084D+00    0.986357D+00    0.147818D+03   -0.760965D-01
   0   357    0.572744D+00    0.987656D+00    0.347031D+02   -0.820888D-01
   0   358    0.570971D+00    0.984546D+00   -0.534939D+01   -0.735797D-01
   0   359    0.573146D+00    0.986075D+00    0.142791D+02   -0.714778D-01
   0   360    0.568842D+00    0.980215D+00    0.146093D+03   -0.669413D-01
   0   361    0.560560D+00    0.970815D+00    0.153742D+03   -0.306371D-01
   0   362    0.535876D+00    0.942847D+00    0.334615D+03    0.543448D-01
   0   363    0.496767D+00    0.891668D+00   -0.475205D+00    0.193881D+00
   0   364    0.413873D+00    0.792971D+00    0.209412D+03    0.332782D+00
   0   365    0.294909D+00    0.619335D+00    0.217475D+03    0.410937D+00
   0   366    0.181584D+00    0.421390D+00    0.382957D+03    0.443268D+00
   0   367    0.100003D+00    0.255965D+00    0.156592D+03    0.456408D+00
   0   368    0.524855D-01    0.144270D+00    0.152424D+03    0.462387D+00
   0   369    0.268825D-01    0.775016D-01    0.715673D+02    0.465265D+00
   0   370    0.132853D-01    0.398589D-01    0.331828D+02    0.466700D+00
   0   371    0.659111D-02    0.200191D-01    0.201929D+02    0.467409D+00
   0   372    0.326233D-02    0.996146D-02    0.600411D+01    0.467760D+00
   0   373    0.157738D-02    0.490058D-02    0.322857D+01    0.467933D+00
   0   374    0.766940D-03    0.241443D-02    0.251533D+01    0.468018D+00
   0   375    0.384336D-03    0.119056D-02    0.108643D+01    0.468060D+00
   0   376    0.188208D-03    0.588231D-03    0.612766D+00    0.468080D+00
   0   377    0.934042D-04    0.287404D-03    0.123797D+00    0.468090D+00
   0   378    0.458483D-04    0.140504D-03    0.121704D+00    0.468095D+00
   0   379    0.224814D-04    0.696871D-04    0.436899D-01    0.468097D+00
   0   380    0.111185D-04    0.340728D-04    0.176715D-01    0.468098D+00
   0   381    0.533631D-05    0.165267D-04    0.149433D-01    0.468099D+00
   0   382    0.261846D-05    0.812494D-05    0.542366D-02    0.468099D+00
   0   383    0.129182D-05    0.398609D-05    0.205962D-02    0.468099D+00
   0   384    0.624252D-06    0.195185D-05    0.137044D-02    0.468100D+00
   0   385    0.307553D-06    0.958987D-06    0.663723D-03    0.468100D+00
   0   386    0.151832D-06    0.468552D-06    0.320580D-03    0.468100D+00
   0   387    0.733744D-07    0.230863D-06    0.201574D-03    0.468100D+00
   0   388    0.362504D-07    0.113415D-06    0.539680D-04    0.468100D+00
   0   389    0.178225D-07    0.558146D-07    0.294377D-04    0.468100D+00
   0   390    0.872658D-08    0.272562D-07    0.232716D-04    0.468100D+00
   0   391    0.429080D-08    0.132913D-07    0.102095D-04    0.468100D+00
   0   392    0.208903D-08    0.658882D-08    0.476385D-05    0.468100D+00
   0   393    0.102831D-08    0.322425D-08    0.259521D-05    0.468100D+00
   0   394    0.506061D-09    0.157259D-08    0.145784D-05    0.468100D+00
   0   395    0.245383D-09    0.766178D-09    0.488230D-06    0.468100D+00
   0   396    0.120823D-09    0.373941D-09    0.161558D-06    0.468100D+00
   0   397    0.597495D-10    0.183429D-09    0.912287D-07    0.468100D+00