variables =  "IG"  "JG"  "PHI"  "Temp."  "Latent_heat"  "mm"
ZONE  I=  401  J=  101
   0     0    0.100000D+01    0.938075D+00    0.945219D-05    0.726116D-01
   0     1    0.100000D+01    0.938075D+00   -0.236160D-05    0.726116D-01
   0     2    0.100000D+01    0.938472D+00    0.181735D-04    0.714078D-01
   0     3    0.100000D+01    0.939260D+00   -0.862260D-04    0.690109D-01
   0     4    0.100000D+01    0.940430D+00    0.161635D-03    0.654429D-01
   0     5    0.999999D+00    0.941963D+00   -0.390440D-04    0.607383D-01
   0     6    0.999998D+00    0.943839D+00    0.784023D-03    0.549460D-01
   0     7    0.999996D+00    0.946032D+00   -0.290241D-02    0.481299D-01
   0     8    0.999989D+00    0.948511D+00    0.872438D-02    0.403720D-01
   0     9    0.999973D+00    0.951240D+00    0.490362D-02    0.317737D-01
   0    10    0.999934D+00    0.954182D+00    0.531868D-01    0.224567D-01
   0    11    0.999838D+00    0.957294D+00   -0.282474D-01    0.125547D-01
   0    12    0.999610D+00    0.960528D+00    0.234697D-01    0.224037D-02
   0    13    0.999066D+00    0.963853D+00   -0.537936D-01   -0.837629D-02
   0    14    0.997811D+00    0.967251D+00    0.287964D-01   -0.192219D-01
   0    15    0.994938D+00    0.970536D+00   -0.337984D+01   -0.297666D-01
   0    16    0.988378D+00    0.973624D+00    0.723273D+01   -0.393147D-01
   0    17    0.973642D+00    0.976691D+00    0.102248D+02   -0.489693D-01
   0    18    0.942578D+00    0.979328D+00   -0.139921D+02   -0.581651D-01
   0    19    0.879988D+00    0.980453D+00   -0.362721D+02   -0.613237D-01
   0    20    0.772440D+00    0.980937D+00   -0.587785D+02   -0.635995D-01
   0    21    0.619589D+00    0.981062D+00   -0.599909D+02   -0.582055D-01
   0    22    0.477111D+00    0.979944D+00   -0.155785D+03   -0.600817D-01
   0    23    0.400266D+00    0.979090D+00   -0.119306D+03   -0.600603D-01
   0    24    0.428549D+00    0.982955D+00   -0.220624D+03   -0.640136D-01
   0    25    0.536061D+00    0.988957D+00   -0.531983D+02   -0.881292D-01
   0    26    0.677275D+00    0.994487D+00   -0.582330D+02   -0.102567D+00
   0    27    0.797475D+00    0.997117D+00    0.179159D+02   -0.107588D+00
   0    28    0.872624D+00    0.100556D+01    0.461409D+02   -0.131686D+00
   0    29    0.902324D+00    0.101096D+01   -0.694597D+02   -0.149155D+00
   0    30    0.896875D+00    0.101673D+01   -0.149079D+02   -0.160694D+00
   0    31    0.858369D+00    0.101812D+01    0.572093D+02   -0.162447D+00
   0    32    0.791641D+00    0.101614D+01    0.820176D+02   -0.156639D+00
   0    33    0.704372D+00    0.101301D+01    0.750377D+02   -0.148247D+00
   0    34    0.625906D+00    0.100329D+01   -0.101317D+03   -0.127086D+00
   0    35    0.579573D+00    0.998652D+00    0.163762D+03   -0.114961D+00
   0    36    0.580202D+00    0.993841D+00   -0.127592D+03   -0.945240D-01
   0    37    0.620593D+00    0.989511D+00   -0.176609D+03   -0.920976D-01
   0    38    0.667063D+00    0.996983D+00    0.166940D+03   -0.107593D+00
   0    39    0.705858D+00    0.100527D+01    0.370044D+02   -0.133240D+00
   0    40    0.723574D+00    0.100814D+01    0.190629D+02   -0.142673D+00
   0    41    0.717728D+00    0.100681D+01    0.150832D+03   -0.140048D+00
   0    42    0.686527D+00    0.100741D+01   -0.941549D+02   -0.137820D+00
   0    43    0.646572D+00    0.100303D+01    0.134457D+03   -0.129380D+00
   0    44    0.602985D+00    0.997251D+00   -0.284188D+02   -0.112934D+00
   0    45    0.562978D+00    0.993485D+00   -0.927118D+02   -0.980508D-01
   0    46    0.535226D+00    0.985643D+00   -0.261688D+02   -0.775627D-01
   0    47    0.527117D+00    0.977686D+00   -0.117620D+03   -0.530412D-01
   0    48    0.523714D+00    0.974830D+00   -0.937320D+02   -0.487408D-01
   0    49    0.532569D+00    0.972374D+00   -0.989094D+02   -0.341449D-01
   0    50    0.542601D+00    0.979017D+00   -0.196738D+03   -0.580342D-01
   0    51    0.550341D+00    0.980375D+00   -0.101125D+03   -0.642710D-01
   0    52    0.557491D+00    0.980565D+00    0.193925D+03   -0.615552D-01
   0    53    0.562493D+00    0.986825D+00    0.402643D+02   -0.759968D-01
   0    54    0.568059D+00    0.984957D+00   -0.132975D+03   -0.714801D-01
   0    55    0.572381D+00    0.985018D+00    0.159075D+03   -0.692417D-01
   0    56    0.580926D+00    0.984202D+00    0.564818D+02   -0.685782D-01
   0    57    0.586204D+00    0.989585D+00   -0.129422D+03   -0.873646D-01
   0    58    0.595442D+00    0.989188D+00   -0.188956D+03   -0.864412D-01
   0    59    0.600931D+00    0.993098D+00   -0.242534D+01   -0.952354D-01
   0    60    0.606485D+00    0.988944D+00    0.526217D+02   -0.785371D-01
   0    61    0.606104D+00    0.992034D+00    0.188521D+03   -0.100364D+00
   0    62    0.606051D+00    0.991169D+00    0.184802D+03   -0.977664D-01
   0    63    0.602654D+00    0.993197D+00   -0.240331D+02   -0.969424D-01
   0    64    0.596248D+00    0.992324D+00    0.151227D+03   -0.926559D-01
   0    65    0.587469D+00    0.988415D+00   -0.533300D+02   -0.830481D-01
   0    66    0.578590D+00    0.985230D+00    0.433903D+02   -0.758473D-01
   0    67    0.571484D+00    0.983656D+00    0.932272D+02   -0.761237D-01
   0    68    0.568610D+00    0.984736D+00    0.482972D+02   -0.738651D-01
   0    69    0.565451D+00    0.982256D+00    0.189972D+03   -0.722414D-01
   0    70    0.561753D+00    0.981743D+00   -0.102333D+03   -0.676275D-01
   0    71    0.562611D+00    0.983372D+00   -0.153533D+03   -0.784036D-01
   0    72    0.562944D+00    0.983912D+00   -0.157986D+03   -0.746536D-01
   0    73    0.564108D+00    0.984088D+00    0.166262D+03   -0.755437D-01
   0    74    0.562601D+00    0.986091D+00    0.833250D+01   -0.766396D-01
   0    75    0.558427D+00    0.982810D+00   -0.172836D+03   -0.673756D-01
   0    76    0.556371D+00    0.981307D+00    0.125554D+03   -0.553574D-01
   0    77    0.555632D+00    0.985316D+00   -0.270294D+02   -0.766142D-01
   0    78    0.554460D+00    0.981479D+00   -0.347123D+02   -0.645709D-01
   0    79    0.555912D+00    0.981020D+00    0.967772D+02   -0.664834D-01
   0    80    0.551721D+00    0.979842D+00   -0.133877D+03   -0.624807D-01
   0    81    0.550315D+00    0.982505D+00   -0.133800D+03   -0.731331D-01
   0    82    0.549019D+00    0.981469D+00    0.251108D+03   -0.606855D-01
   0    83    0.553018D+00    0.982094D+00    0.376223D+02   -0.705694D-01
   0    84    0.547101D+00    0.980950D+00    0.291407D+03   -0.567463D-01
   0    85    0.551716D+00    0.982687D+00    0.615024D+02   -0.665529D-01
   0    86    0.550740D+00    0.983883D+00    0.170344D+03   -0.662010D-01
   0    87    0.547421D+00    0.980465D+00    0.406538D+02   -0.629438D-01
   0    88    0.542851D+00    0.980876D+00   -0.122765D+03   -0.576406D-01
   0    89    0.539554D+00    0.979430D+00    0.178248D+03   -0.580337D-01
   0    90    0.535094D+00    0.978448D+00   -0.237163D+03   -0.554826D-01
   0    91    0.527772D+00    0.978686D+00   -0.544070D+02   -0.556382D-01
   0    92    0.531009D+00    0.979021D+00   -0.538875D+02   -0.606974D-01
   0    93    0.530934D+00    0.979208D+00   -0.213659D+03   -0.520663D-01
   0    94    0.531947D+00    0.978142D+00    0.160645D+03   -0.561945D-01
   0    95    0.538580D+00    0.976557D+00   -0.132283D+03   -0.543370D-01
   0    96    0.547917D+00    0.979434D+00    0.860224D+01   -0.542098D-01
   0    97    0.553195D+00    0.978051D+00    0.531791D+02   -0.541691D-01
   0    98    0.559834D+00    0.985577D+00    0.822673D+02   -0.781244D-01
   0    99    0.564002D+00    0.986582D+00   -0.894556D+02   -0.784567D-01
   0   100    0.566281D+00    0.986038D+00   -0.973024D+02   -0.719705D-01
   0   101    0.566497D+00    0.983217D+00   -0.333479D+00   -0.716298D-01
   0   102    0.570719D+00    0.984003D+00   -0.102593D+03   -0.742514D-01
   0   103    0.572316D+00    0.985092D+00   -0.203345D+03   -0.817305D-01
   0   104    0.571821D+00    0.986442D+00    0.175985D+03   -0.752608D-01
   0   105    0.575117D+00    0.986524D+00   -0.541753D+02   -0.788803D-01
   0   106    0.580110D+00    0.985145D+00   -0.713514D+02   -0.811183D-01
   0   107    0.581843D+00    0.984396D+00    0.323236D+02   -0.775419D-01
   0   108    0.586604D+00    0.988533D+00    0.329725D+02   -0.894832D-01
   0   109    0.591615D+00    0.991569D+00   -0.865724D+02   -0.915200D-01
   0   110    0.594434D+00    0.992322D+00   -0.135569D+03   -0.916977D-01
   0   111    0.594444D+00    0.990014D+00   -0.103953D+03   -0.858206D-01
   0   112    0.596944D+00    0.987791D+00    0.185595D+03   -0.859160D-01
   0   113    0.597100D+00    0.991212D+00   -0.137581D+03   -0.862907D-01
   0   114    0.594459D+00    0.985830D+00    0.136112D+03   -0.797915D-01
   0   115    0.591756D+00    0.986272D+00   -0.217026D+03   -0.842442D-01
   0   116    0.589257D+00    0.992188D+00   -0.126056D+03   -0.912755D-01
   0   117    0.586344D+00    0.985164D+00    0.179621D+03   -0.810214D-01
   0   118    0.588265D+00    0.986017D+00   -0.793307D+02   -0.742104D-01
   0   119    0.594444D+00    0.990019D+00   -0.702479D+02   -0.841142D-01
   0   120    0.600029D+00    0.990985D+00   -0.423472D+02   -0.964635D-01
   0   121    0.606575D+00    0.989294D+00   -0.129472D+02   -0.931424D-01
   0   122    0.613808D+00    0.990075D+00    0.118080D+02   -0.830690D-01
   0   123    0.615378D+00    0.989532D+00   -0.967916D+02   -0.898287D-01
   0   124    0.618856D+00    0.994978D+00   -0.150999D+03   -0.102875D+00
   0   125    0.618442D+00    0.992096D+00    0.135781D+03   -0.958240D-01
   0   126    0.617115D+00    0.991220D+00   -0.205107D+03   -0.974016D-01
   0   127    0.610282D+00    0.988970D+00    0.364194D+02   -0.895039D-01
   0   128    0.604812D+00    0.991021D+00   -0.125725D+03   -0.880862D-01
   0   129    0.600478D+00    0.989404D+00    0.108895D+03   -0.898340D-01
   0   130    0.597354D+00    0.984425D+00    0.489569D+02   -0.761539D-01
   0   131    0.589536D+00    0.986832D+00    0.537601D+02   -0.819831D-01
   0   132    0.585736D+00    0.985048D+00   -0.169751D+03   -0.777771D-01
   0   133    0.581165D+00    0.986798D+00   -0.142945D+03   -0.858353D-01
   0   134    0.583118D+00    0.988222D+00   -0.244853D+03   -0.825225D-01
   0   135    0.577172D+00    0.984655D+00    0.291334D+02   -0.780144D-01
   0   136    0.575824D+00    0.982922D+00    0.358322D+02   -0.742604D-01
   0   137    0.574051D+00    0.983659D+00    0.120737D+03   -0.686495D-01
   0   138    0.575763D+00    0.981834D+00   -0.287368D+02   -0.670451D-01
   0   139    0.574250D+00    0.984449D+00    0.189116D+03   -0.767455D-01
   0   140    0.573147D+00    0.981841D+00   -0.135938D+03   -0.680811D-01
   0   141    0.575973D+00    0.986609D+00   -0.278081D+03   -0.849152D-01
   0   142    0.571103D+00    0.986289D+00   -0.175628D+02   -0.772108D-01
   0   143    0.571955D+00    0.984459D+00   -0.519755D+02   -0.722079D-01
   0   144    0.568880D+00    0.986023D+00    0.910432D+02   -0.737018D-01
   0   145    0.567229D+00    0.984510D+00   -0.394385D+02   -0.667544D-01
   0   146    0.564978D+00    0.984710D+00    0.640397D+01   -0.664970D-01
   0   147    0.567122D+00    0.984911D+00   -0.345837D+02   -0.682492D-01
   0   148    0.564472D+00    0.981198D+00    0.144028D+03   -0.598574D-01
   0   149    0.564001D+00    0.984874D+00   -0.190927D+03   -0.704545D-01
   0   150    0.564709D+00    0.982457D+00    0.638193D+02   -0.696237D-01
   0   151    0.561110D+00    0.983067D+00    0.146661D+03   -0.676384D-01
   0   152    0.562775D+00    0.982935D+00    0.189850D+03   -0.650608D-01
   0   153    0.565393D+00    0.983826D+00   -0.209365D+03   -0.729034D-01
   0   154    0.562522D+00    0.978786D+00    0.123193D+02   -0.549890D-01
   0   155    0.563067D+00    0.979845D+00    0.762537D+02   -0.615345D-01
   0   156    0.564580D+00    0.982658D+00   -0.152486D+03   -0.629982D-01
   0   157    0.564687D+00    0.985333D+00    0.172766D+03   -0.745474D-01
   0   158    0.566181D+00    0.983834D+00    0.510811D+02   -0.749215D-01
   0   159    0.568188D+00    0.985084D+00    0.502483D+02   -0.705897D-01
   0   160    0.570353D+00    0.980404D+00   -0.936191D+02   -0.546056D-01
   0   161    0.573298D+00    0.986661D+00   -0.731440D+02   -0.748090D-01
   0   162    0.573287D+00    0.982025D+00    0.164699D+03   -0.697206D-01
   0   163    0.574454D+00    0.982531D+00    0.196820D+02   -0.609330D-01
   0   164    0.576554D+00    0.984150D+00    0.108684D+03   -0.744623D-01
   0   165    0.574821D+00    0.982506D+00    0.107468D+03   -0.689964D-01
   0   166    0.576043D+00    0.986882D+00    0.831040D+02   -0.794872D-01
   0   167    0.576699D+00    0.982977D+00   -0.371120D+02   -0.678879D-01
   0   168    0.578878D+00    0.982443D+00    0.197557D+03   -0.666343D-01
   0   169    0.578750D+00    0.982173D+00   -0.238332D+03   -0.686163D-01
   0   170    0.574243D+00    0.985417D+00   -0.706148D+02   -0.804178D-01
   0   171    0.576841D+00    0.989138D+00   -0.883478D+02   -0.823502D-01
   0   172    0.576736D+00    0.987575D+00   -0.105925D+03   -0.779237D-01
   0   173    0.575156D+00    0.984491D+00    0.210507D+03   -0.707694D-01
   0   174    0.576039D+00    0.982584D+00    0.773518D+02   -0.669792D-01
   0   175    0.577359D+00    0.986366D+00    0.112541D+03   -0.811253D-01
   0   176    0.574877D+00    0.985671D+00   -0.448264D+02   -0.830595D-01
   0   177    0.576872D+00    0.981282D+00   -0.996678D+02   -0.648340D-01
   0   178    0.576803D+00    0.985311D+00   -0.182943D+02   -0.715290D-01
   0   179    0.575838D+00    0.986962D+00    0.194300D+03   -0.878884D-01
   0   180    0.579130D+00    0.985745D+00   -0.746972D+02   -0.696574D-01
   0   181    0.581163D+00    0.988992D+00   -0.152063D+03   -0.894732D-01
   0   182    0.578229D+00    0.987139D+00    0.179780D+03   -0.741820D-01
   0   183    0.581899D+00    0.985674D+00    0.155383D+02   -0.824392D-01
   0   184    0.581212D+00    0.989163D+00   -0.297438D+02   -0.825074D-01
   0   185    0.580518D+00    0.984173D+00   -0.191361D+03   -0.691527D-01
   0   186    0.578408D+00    0.988261D+00    0.932113D+02   -0.802291D-01
   0   187    0.579831D+00    0.987520D+00    0.853827D+02   -0.878741D-01
   0   188    0.580967D+00    0.985260D+00   -0.133295D+02   -0.778144D-01
   0   189    0.581485D+00    0.986293D+00    0.182685D+03   -0.820026D-01
   0   190    0.580176D+00    0.982811D+00    0.156166D+03   -0.713305D-01
   0   191    0.583510D+00    0.983176D+00    0.883454D+02   -0.714864D-01
   0   192    0.579633D+00    0.985366D+00   -0.414160D+02   -0.720874D-01
   0   193    0.576507D+00    0.986829D+00    0.143590D+03   -0.820585D-01
   0   194    0.573208D+00    0.987019D+00   -0.958977D+02   -0.808004D-01
   0   195    0.577825D+00    0.988856D+00    0.436180D+02   -0.888401D-01
   0   196    0.573811D+00    0.988481D+00   -0.147616D+03   -0.885335D-01
   0   197    0.575994D+00    0.989940D+00   -0.163104D+03   -0.848418D-01
   0   198    0.579483D+00    0.982772D+00    0.148210D+03   -0.717137D-01
   0   199    0.580867D+00    0.990299D+00   -0.488047D+02   -0.857328D-01
   0   200    0.580677D+00    0.988642D+00   -0.777383D+02   -0.865969D-01
   0   201    0.579066D+00    0.985016D+00    0.776452D+02   -0.766644D-01
   0   202    0.579612D+00    0.987896D+00   -0.198380D+02   -0.843911D-01
   0   203    0.573866D+00    0.987920D+00   -0.581925D+02   -0.799879D-01
   0   204    0.577119D+00    0.988145D+00    0.100512D+03   -0.808401D-01
   0   205    0.579535D+00    0.988865D+00   -0.240215D+03   -0.843574D-01
   0   206    0.577677D+00    0.987825D+00   -0.472573D+02   -0.850659D-01
   0   207    0.576962D+00    0.988153D+00    0.187754D+03   -0.804319D-01
   0   208    0.574801D+00    0.982373D+00   -0.236647D+02   -0.664232D-01
   0   209    0.575455D+00    0.985241D+00   -0.892299D+02   -0.737674D-01
   0   210    0.578862D+00    0.985259D+00   -0.551138D+02   -0.715388D-01
   0   211    0.576474D+00    0.981384D+00   -0.906656D+02   -0.658649D-01
   0   212    0.579137D+00    0.988527D+00   -0.106039D+03   -0.804728D-01
   0   213    0.578634D+00    0.983254D+00   -0.174514D+03   -0.708752D-01
   0   214    0.577226D+00    0.987030D+00   -0.184816D+03   -0.829604D-01
   0   215    0.576058D+00    0.985998D+00    0.173317D+03   -0.823754D-01
   0   216    0.573315D+00    0.988044D+00   -0.102677D+02   -0.883190D-01
   0   217    0.578695D+00    0.984290D+00    0.331133D+02   -0.723826D-01
   0   218    0.578302D+00    0.986472D+00   -0.424419D+02   -0.744511D-01
   0   219    0.579232D+00    0.987460D+00   -0.120202D+03   -0.768245D-01
   0   220    0.577815D+00    0.987872D+00    0.200247D+03   -0.813216D-01
   0   221    0.579578D+00    0.984551D+00   -0.201807D+03   -0.773207D-01
   0   222    0.578017D+00    0.982773D+00   -0.748271D+02   -0.649013D-01
   0   223    0.578851D+00    0.986193D+00   -0.184525D+03   -0.707040D-01
   0   224    0.576347D+00    0.987323D+00    0.556868D+02   -0.883424D-01
   0   225    0.572922D+00    0.987329D+00    0.195686D+02   -0.847053D-01
   0   226    0.568291D+00    0.983780D+00    0.300763D+02   -0.702591D-01
   0   227    0.570160D+00    0.986094D+00    0.782226D+02   -0.738673D-01
   0   228    0.569862D+00    0.989244D+00    0.339627D+02   -0.839024D-01
   0   229    0.572754D+00    0.988484D+00    0.879798D+02   -0.871475D-01
   0   230    0.577005D+00    0.987139D+00   -0.182347D+03   -0.862130D-01
   0   231    0.575050D+00    0.989529D+00   -0.780628D+02   -0.891577D-01
   0   232    0.575196D+00    0.986833D+00    0.335223D+02   -0.732537D-01
   0   233    0.575277D+00    0.988062D+00    0.611128D+00   -0.861912D-01
   0   234    0.576047D+00    0.988942D+00    0.442361D+02   -0.816670D-01
   0   235    0.573117D+00    0.983849D+00    0.174020D+03   -0.772399D-01
   0   236    0.577143D+00    0.985476D+00   -0.178724D+03   -0.709687D-01
   0   237    0.578291D+00    0.981489D+00   -0.193755D+03   -0.681545D-01
   0   238    0.576589D+00    0.981474D+00    0.223026D+03   -0.629658D-01
   0   239    0.578776D+00    0.985727D+00    0.100663D+03   -0.827191D-01
   0   240    0.578164D+00    0.983782D+00   -0.166328D+03   -0.682788D-01
   0   241    0.578513D+00    0.986599D+00    0.257993D+02   -0.749017D-01
   0   242    0.579013D+00    0.985784D+00   -0.457269D+02   -0.715220D-01
   0   243    0.575118D+00    0.985810D+00   -0.499271D+02   -0.734790D-01
   0   244    0.576494D+00    0.986744D+00   -0.135982D+03   -0.864070D-01
   0   245    0.572426D+00    0.986153D+00   -0.897424D+02   -0.729862D-01
   0   246    0.575223D+00    0.982580D+00   -0.169201D+03   -0.683696D-01
   0   247    0.575893D+00    0.982640D+00   -0.564726D+02   -0.727303D-01
   0   248    0.577044D+00    0.985249D+00    0.710576D+02   -0.674956D-01
   0   249    0.576815D+00    0.980972D+00   -0.562925D+02   -0.634063D-01
   0   250    0.575208D+00    0.982208D+00    0.180693D+03   -0.727258D-01
   0   251    0.574248D+00    0.985970D+00    0.164898D+03   -0.759757D-01
   0   252    0.578588D+00    0.983980D+00   -0.306803D+02   -0.759620D-01
   0   253    0.576051D+00    0.985158D+00    0.140660D+03   -0.758331D-01
   0   254    0.576788D+00    0.986817D+00    0.128385D+03   -0.748376D-01
   0   255    0.577310D+00    0.987342D+00   -0.473255D+02   -0.832745D-01
   0   256    0.577606D+00    0.986615D+00   -0.164990D+03   -0.749877D-01
   0   257    0.579281D+00    0.984446D+00    0.103734D+03   -0.756309D-01
   0   258    0.577762D+00    0.987362D+00   -0.563838D+00   -0.758852D-01
   0   259    0.578248D+00    0.985733D+00   -0.242039D+03   -0.806811D-01
   0   260    0.576446D+00    0.983118D+00   -0.126470D+03   -0.652140D-01
   0   261    0.576439D+00    0.983327D+00    0.589791D+02   -0.659260D-01
   0   262    0.573866D+00    0.983861D+00    0.247252D+03   -0.747978D-01
   0   263    0.576774D+00    0.982783D+00   -0.512941D+02   -0.717715D-01
   0   264    0.576726D+00    0.987267D+00   -0.992189D+02   -0.792393D-01
   0   265    0.576866D+00    0.983817D+00   -0.145488D+03   -0.686501D-01
   0   266    0.579113D+00    0.987425D+00    0.163214D+03   -0.743850D-01
   0   267    0.579155D+00    0.984489D+00   -0.134807D+03   -0.734387D-01
   0   268    0.580696D+00    0.986323D+00    0.220101D+02   -0.758672D-01
   0   269    0.579943D+00    0.985698D+00   -0.176142D+02   -0.818429D-01
   0   270    0.576933D+00    0.987892D+00   -0.924219D+02   -0.847176D-01
   0   271    0.576220D+00    0.985166D+00    0.204199D+03   -0.784525D-01
   0   272    0.576370D+00    0.984570D+00   -0.904124D+02   -0.773885D-01
   0   273    0.576025D+00    0.984685D+00   -0.337675D+02   -0.803127D-01
   0   274    0.578122D+00    0.986108D+00   -0.127325D+03   -0.765711D-01
   0   275    0.575825D+00    0.986715D+00    0.107406D+03   -0.744338D-01
   0   276    0.581546D+00    0.988624D+00    0.111727D+03   -0.887308D-01
   0   277    0.579643D+00    0.985759D+00   -0.175663D+03   -0.791514D-01
   0   278    0.578795D+00    0.987489D+00   -0.136162D+03   -0.781276D-01
   0   279    0.578551D+00    0.987167D+00    0.210782D+03   -0.792964D-01
   0   280    0.579191D+00    0.987774D+00    0.298924D+02   -0.805776D-01
   0   281    0.578877D+00    0.987466D+00    0.763866D+02   -0.780697D-01
   0   282    0.575123D+00    0.986231D+00   -0.648360D+02   -0.781623D-01
   0   283    0.578406D+00    0.984710D+00   -0.705027D+00   -0.710816D-01
   0   284    0.575376D+00    0.983013D+00   -0.624309D+02   -0.734824D-01
   0   285    0.572885D+00    0.984019D+00   -0.176074D+03   -0.743488D-01
   0   286    0.572266D+00    0.987367D+00   -0.892832D+02   -0.792424D-01
   0   287    0.572907D+00    0.986022D+00    0.145557D+03   -0.773785D-01
   0   288    0.577612D+00    0.986222D+00    0.117510D+02   -0.804812D-01
   0   289    0.575456D+00    0.987069D+00   -0.176076D+01   -0.856264D-01
   0   290    0.578525D+00    0.987685D+00    0.479797D+02   -0.768292D-01
   0   291    0.576251D+00    0.987247D+00   -0.107550D+03   -0.855056D-01
   0   292    0.574966D+00    0.983302D+00    0.167566D+03   -0.713590D-01
   0   293    0.574570D+00    0.986035D+00    0.185597D+03   -0.702132D-01
   0   294    0.576329D+00    0.987927D+00   -0.764607D+02   -0.809609D-01
   0   295    0.575715D+00    0.984295D+00   -0.466602D+02   -0.751767D-01
   0   296    0.575657D+00    0.986989D+00   -0.163135D+03   -0.740191D-01
   0   297    0.573524D+00    0.986553D+00   -0.633390D+02   -0.754561D-01
   0   298    0.576941D+00    0.982749D+00   -0.228287D+03   -0.719842D-01
   0   299    0.573853D+00    0.985285D+00    0.228186D+03   -0.797055D-01
   0   300    0.573213D+00    0.987914D+00    0.183010D+03   -0.829043D-01
   0   301    0.575922D+00    0.986239D+00    0.547883D+02   -0.801748D-01
   0   302    0.576558D+00    0.987446D+00    0.538640D+02   -0.825596D-01
   0   303    0.576545D+00    0.983461D+00   -0.146217D+03   -0.762172D-01
   0   304    0.574518D+00    0.988216D+00    0.123165D+03   -0.809054D-01
   0   305    0.574129D+00    0.986668D+00   -0.192030D+01   -0.723305D-01
   0   306    0.577548D+00    0.990421D+00    0.190373D+03   -0.879395D-01
   0   307    0.578310D+00    0.985069D+00   -0.168478D+02   -0.791950D-01
   0   308    0.579290D+00    0.988229D+00    0.103173D+02   -0.914255D-01
   0   309    0.575233D+00    0.985073D+00    0.137128D+03   -0.714750D-01
   0   310    0.576067D+00    0.985120D+00   -0.174480D+03   -0.774825D-01
   0   311    0.575637D+00    0.987943D+00    0.122805D+03   -0.856953D-01
   0   312    0.573734D+00    0.983646D+00   -0.817747D+02   -0.723545D-01
   0   313    0.578319D+00    0.987222D+00   -0.176960D+03   -0.795359D-01
   0   314    0.580382D+00    0.985505D+00   -0.755578D+02   -0.802490D-01
   0   315    0.575920D+00    0.981568D+00    0.184920D+03   -0.685389D-01
   0   316    0.576663D+00    0.981982D+00   -0.153598D+03   -0.651243D-01
   0   317    0.574390D+00    0.980506D+00   -0.183090D+03   -0.631658D-01
   0   318    0.575524D+00    0.986527D+00   -0.548662D+02   -0.782410D-01
   0   319    0.574917D+00    0.984173D+00   -0.127724D+03   -0.695839D-01
   0   320    0.575507D+00    0.985117D+00   -0.772991D+01   -0.734631D-01
   0   321    0.575678D+00    0.982277D+00    0.191327D+03   -0.650646D-01
   0   322    0.574299D+00    0.980323D+00   -0.172949D+03   -0.570992D-01
   0   323    0.569188D+00    0.972371D+00    0.931934D+01   -0.354833D-01
   0   324    0.554693D+00    0.957901D+00   -0.149193D+03    0.126182D-01
   0   325    0.522577D+00    0.923734D+00    0.109375D+03    0.119588D+00
   0   326    0.460054D+00    0.852886D+00    0.426600D+03    0.267123D+00
   0   327    0.359126D+00    0.716051D+00    0.347220D+03    0.379317D+00
   0   328    0.237236D+00    0.522953D+00    0.422602D+03    0.430261D+00
   0   329    0.136292D+00    0.339301D+00    0.388480D+03    0.450589D+00
   0   330    0.739264D-01    0.197364D+00    0.206158D+03    0.459748D+00
   0   331    0.379054D-01    0.108154D+00    0.759054D+02    0.464008D+00
   0   332    0.190493D-01    0.563108D-01    0.598019D+02    0.466084D+00
   0   333    0.956933D-02    0.286991D-01    0.267624D+02    0.467105D+00
   0   334    0.466230D-02    0.142941D-01    0.105831D+02    0.467609D+00
   0   335    0.229040D-02    0.712463D-02    0.543529D+01    0.467858D+00
   0   336    0.112089D-02    0.350827D-02    0.212648D+01    0.467981D+00
   0   337    0.559435D-03    0.172622D-02    0.779227D+00    0.468041D+00
   0   338    0.272182D-03    0.849132D-03    0.715448D+00    0.468071D+00
   0   339    0.134819D-03    0.418020D-03    0.396108D+00    0.468085D+00
   0   340    0.666557D-04    0.205432D-03    0.102587D+00    0.468093D+00
   0   341    0.324992D-04    0.101212D-03    0.682718D-01    0.468096D+00
   0   342    0.159268D-04    0.495645D-04    0.500803D-01    0.468098D+00
   0   343    0.774057D-05    0.243120D-04    0.171592D-01    0.468099D+00
   0   344    0.378967D-05    0.118845D-04    0.100944D-01    0.468099D+00
   0   345    0.187265D-05    0.580733D-05    0.474266D-02    0.468099D+00
   0   346    0.917673D-06    0.287296D-05    0.181437D-02    0.468100D+00
   0   347    0.451409D-06    0.139316D-05    0.776571D-03    0.468100D+00
   0   348    0.222240D-06    0.688752D-06    0.383475D-03    0.468100D+00
   0   349    0.108644D-06    0.336689D-06    0.214887D-03    0.468100D+00
   0   350    0.528407D-07    0.164963D-06    0.118558D-03    0.468100D+00
   0   351    0.259869D-07    0.809034D-07    0.474005D-04    0.468100D+00
   0   352    0.126262D-07    0.394504D-07    0.199428D-04    0.468100D+00
   0   353    0.621908D-08    0.192992D-07    0.108018D-04    0.468100D+00
   0   354    0.304357D-08    0.943685D-08    0.616448D-05    0.468100D+00
   0   355    0.147676D-08    0.462720D-08    0.400494D-05    0.468100D+00
   0   356    0.729981D-09    0.227529D-08    0.118112D-05    0.468100D+00
   0   357    0.357773D-09    0.111889D-08    0.101764D-05    0.468100D+00
   0   358    0.175765D-09    0.547564D-09    0.364722D-06    0.468100D+00
   0   359    0.854565D-10    0.269160D-09    0.169662D-06    0.468100D+00
   0   360    0.421896D-10    0.131568D-09    0.125620D-06    0.468100D+00
   0   361    0.205058D-10    0.639477D-10    0.409635D-07    0.468100D+00
   0   362    0.100206D-10    0.313904D-10    0.166666D-07    0.468100D+00
   0   363    0.495472D-11    0.153960D-10    0.912736D-08    0.468100D+00
   0   364    0.243284D-11    0.758120D-11    0.501030D-08    0.468100D+00
   0   365    0.119384D-11    0.371085D-11    0.266355D-08    0.468100D+00
   0   366    0.593910D-12    0.182580D-11    0.171561D-08    0.468100D+00
   0   367    0.288247D-12    0.893188D-12    0.638263D-09    0.468100D+00
   0   368    0.141648D-12    0.438896D-12    0.222057D-09    0.468100D+00
   0   369    0.704923D-13    0.216724D-12    0.963682D-10    0.468100D+00
   0   370    0.341265D-13    0.105971D-12    0.908595D-10    0.468100D+00
   0   371    0.168134D-13    0.520457D-13    0.483954D-10    0.468100D+00
   0   372    0.812421D-14    0.254473D-13    0.142182D-10    0.468100D+00
   0   373    0.400413D-14    0.124409D-13    0.577423D-11    0.468100D+00
   0   374    0.198810D-14    0.609443D-14    0.362294D-11    0.468100D+00
   0   375    0.969145D-15    0.300687D-14    0.206401D-11    0.468100D+00
   0   376    0.469951D-15    0.145924D-14    0.130952D-11    0.468100D+00
   0   377    0.229163D-15    0.715416D-15    0.438936D-12    0.468100D+00
   0   378    0.113626D-15    0.352499D-15    0.246682D-12    0.468100D+00
   0   379    0.558084D-16    0.173131D-15    0.106920D-12    0.468100D+00
   0   380    0.271953D-16    0.851161D-16    0.742925D-13    0.468100D+00
   0   381    0.131740D-16    0.415583D-16    0.233875D-13    0.468100D+00
   0   382    0.641839D-17    0.203288D-16    0.178834D-13    0.468100D+00
   0   383    0.315069D-17    0.993879D-17    0.532023D-14    0.468100D+00
   0   384    0.154101D-17    0.486007D-17    0.366967D-14    0.468100D+00
   0   385    0.764440D-18    0.239185D-17    0.234290D-14    0.468100D+00
   0   386    0.377453D-18    0.117947D-17    0.811478D-15    0.468100D+00
   0   387    0.186889D-18    0.575713D-18    0.505260D-15    0.468100D+00
   0   388    0.903373D-19    0.282468D-18    0.226110D-15    0.468100D+00
   0   389    0.438728D-19    0.137923D-18    0.113074D-15    0.468100D+00
   0   390    0.217207D-19    0.675364D-19    0.617863D-16    0.468100D+00
   0   391    0.107117D-19    0.332539D-19    0.294619D-16    0.468100D+00
   0   392    0.528969D-20    0.163237D-19    0.744398D-17    0.468100D+00
   0   393    0.258034D-20    0.798890D-20    0.423747D-17    0.468100D+00
   0   394    0.125002D-20    0.391394D-20    0.195560D-17    0.468100D+00
   0   395    0.614099D-21    0.192914D-20    0.109107D-17    0.468100D+00
   0   396    0.301863D-21    0.943557D-21    0.709645D-18    0.468100D+00
   0   397    0.149142D-21    0.464271D-21    0.268244D-18    0.468100D+00