variables =  "IG"  "JG"  "PHI"  "Temp."  "Latent_heat"  "mm"
ZONE  I=  401  J=  101
   0     0    0.100000D+01    0.596381D+00    0.242826D-04    0.415842D+00
   0     1    0.100000D+01    0.596381D+00    0.535315D-04    0.415842D+00
   0     2    0.100000D+01    0.604068D+00    0.425431D-04    0.414094D+00
   0     3    0.999999D+00    0.619171D+00   -0.148848D-04    0.410449D+00
   0     4    0.999998D+00    0.641162D+00   -0.101968D-02    0.404578D+00
   0     5    0.999993D+00    0.669281D+00   -0.378581D-02    0.395908D+00
   0     6    0.999979D+00    0.702576D+00   -0.857651D-02    0.383492D+00
   0     7    0.999931D+00    0.739949D+00    0.860414D-02    0.365775D+00
   0     8    0.999783D+00    0.780207D+00   -0.109694D+00    0.340171D+00
   0     9    0.999330D+00    0.822114D+00   -0.427770D+00    0.302335D+00
   0    10    0.997973D+00    0.864379D+00   -0.244967D+01    0.245480D+00
   0    11    0.993900D+00    0.905753D+00    0.377015D+01    0.161544D+00
   0    12    0.983073D+00    0.944943D+00    0.340406D+01    0.514624D-01
   0    13    0.957849D+00    0.980169D+00   -0.132006D+01   -0.605639D-01
   0    14    0.907070D+00    0.100850D+01    0.557356D+02   -0.140991D+00
   0    15    0.821480D+00    0.102586D+01    0.975400D+02   -0.183245D+00
   0    16    0.701688D+00    0.102858D+01    0.121840D+03   -0.185536D+00
   0    17    0.587982D+00    0.102103D+01    0.733909D+02   -0.176565D+00
   0    18    0.517214D+00    0.100771D+01    0.145828D+03   -0.136728D+00
   0    19    0.496794D+00    0.992955D+00   -0.467077D+02   -0.939177D-01
   0    20    0.514637D+00    0.978743D+00   -0.197989D+03   -0.599121D-01
   0    21    0.552146D+00    0.978456D+00   -0.101952D+03   -0.618711D-01
   0    22    0.577456D+00    0.978512D+00   -0.221981D+03   -0.588087D-01
   0    23    0.590904D+00    0.982938D+00   -0.807511D+02   -0.708472D-01
   0    24    0.599775D+00    0.985860D+00   -0.206363D+02   -0.791199D-01
   0    25    0.597589D+00    0.995076D+00   -0.183944D+03   -0.104478D+00
   0    26    0.590383D+00    0.986945D+00   -0.147343D+03   -0.833681D-01
   0    27    0.589349D+00    0.989588D+00   -0.207371D+03   -0.911980D-01
   0    28    0.584050D+00    0.986561D+00    0.148347D+03   -0.790379D-01
   0    29    0.584545D+00    0.990420D+00    0.139796D+03   -0.953729D-01
   0    30    0.583111D+00    0.987633D+00   -0.140469D+03   -0.853168D-01
   0    31    0.582185D+00    0.987494D+00    0.543680D+02   -0.834477D-01
   0    32    0.583435D+00    0.988057D+00   -0.157298D+03   -0.790487D-01
   0    33    0.584768D+00    0.985588D+00   -0.153676D+03   -0.720056D-01
   0    34    0.580780D+00    0.988725D+00    0.450473D+02   -0.813489D-01
   0    35    0.582753D+00    0.989261D+00    0.172170D+03   -0.850488D-01
   0    36    0.581491D+00    0.990601D+00    0.199214D+03   -0.874777D-01
   0    37    0.581081D+00    0.986294D+00   -0.176975D+03   -0.821455D-01
   0    38    0.582853D+00    0.985944D+00   -0.175200D+03   -0.698096D-01
   0    39    0.581579D+00    0.985619D+00   -0.756409D+02   -0.726794D-01
   0    40    0.583166D+00    0.987708D+00    0.449007D+02   -0.760771D-01
   0    41    0.581825D+00    0.983116D+00   -0.565690D+02   -0.724159D-01
   0    42    0.579575D+00    0.986507D+00   -0.141602D+03   -0.794557D-01
   0    43    0.579227D+00    0.987829D+00   -0.677317D+02   -0.854178D-01
   0    44    0.576849D+00    0.983846D+00   -0.731319D+01   -0.666305D-01
   0    45    0.575304D+00    0.982117D+00   -0.527765D+02   -0.663641D-01
   0    46    0.575877D+00    0.985625D+00    0.863768D+02   -0.734018D-01
   0    47    0.576505D+00    0.982333D+00    0.571074D+02   -0.709062D-01
   0    48    0.577137D+00    0.990513D+00   -0.147116D+03   -0.899651D-01
   0    49    0.577670D+00    0.987531D+00   -0.670451D+02   -0.808809D-01
   0    50    0.577576D+00    0.985600D+00    0.398691D+01   -0.775962D-01
   0    51    0.580668D+00    0.983990D+00    0.841427D+02   -0.720598D-01
   0    52    0.579312D+00    0.981752D+00   -0.868822D+02   -0.678908D-01
   0    53    0.575216D+00    0.982401D+00    0.458519D+01   -0.591245D-01
   0    54    0.577245D+00    0.984213D+00    0.678881D+02   -0.713270D-01
   0    55    0.577695D+00    0.986699D+00   -0.134372D+03   -0.752655D-01
   0    56    0.578154D+00    0.985958D+00    0.911411D+02   -0.734101D-01
   0    57    0.577408D+00    0.985410D+00   -0.103833D+03   -0.804298D-01
   0    58    0.573566D+00    0.985959D+00    0.172118D+03   -0.736757D-01
   0    59    0.574473D+00    0.981174D+00   -0.106774D+03   -0.565840D-01
   0    60    0.571847D+00    0.975228D+00   -0.923974D+02   -0.477910D-01
   0    61    0.567742D+00    0.972663D+00   -0.833929D+02   -0.344365D-01
   0    62    0.551389D+00    0.958411D+00    0.948668D+02    0.939316D-02
   0    63    0.523114D+00    0.927026D+00    0.130821D+03    0.108573D+00
   0    64    0.458281D+00    0.851303D+00    0.123379D+03    0.271115D+00
   0    65    0.352769D+00    0.710043D+00    0.476726D+03    0.382297D+00
   0    66    0.230410D+00    0.512629D+00    0.238308D+03    0.431669D+00
   0    67    0.134332D+00    0.327367D+00    0.164636D+03    0.451541D+00
   0    68    0.714909D-01    0.189971D+00    0.185076D+03    0.460135D+00
   0    69    0.366967D-01    0.103485D+00    0.640723D+02    0.464202D+00
   0    70    0.183336D-01    0.534942D-01    0.413922D+02    0.466187D+00
   0    71    0.913005D-02    0.270714D-01    0.182708D+02    0.467162D+00
   0    72    0.447709D-02    0.135344D-01    0.896587D+01    0.467636D+00
   0    73    0.220661D-02    0.668914D-02    0.419424D+01    0.467872D+00
   0    74    0.107475D-02    0.330833D-02    0.306549D+01    0.467988D+00
   0    75    0.524416D-03    0.161885D-02    0.152315D+01    0.468045D+00
   0    76    0.258717D-03    0.797395D-03    0.631989D+00    0.468073D+00
   0    77    0.126685D-03    0.390669D-03    0.302748D+00    0.468086D+00
   0    78    0.621002D-04    0.191795D-03    0.174498D+00    0.468093D+00
   0    79    0.304794D-04    0.944162D-04    0.749781D-01    0.468096D+00
   0    80    0.148946D-04    0.464174D-04    0.296286D-01    0.468098D+00
   0    81    0.729797D-05    0.226183D-04    0.131234D-01    0.468099D+00
   0    82    0.356149D-05    0.111421D-04    0.611353D-02    0.468099D+00
   0    83    0.174626D-05    0.545399D-05    0.388261D-02    0.468099D+00
   0    84    0.853300D-06    0.266306D-05    0.180904D-02    0.468100D+00
   0    85    0.418440D-06    0.130853D-05    0.124372D-02    0.468100D+00
   0    86    0.206523D-06    0.641939D-06    0.406289D-03    0.468100D+00
   0    87    0.103508D-06    0.317422D-06    0.286078D-03    0.468100D+00
   0    88    0.501952D-07    0.156112D-06    0.112290D-03    0.468100D+00
   0    89    0.247701D-07    0.760585D-07    0.538753D-04    0.468100D+00
   0    90    0.118531D-07    0.372002D-07    0.381060D-04    0.468100D+00
   0    91    0.584936D-08    0.182131D-07    0.893935D-05    0.468100D+00
   0    92    0.290700D-08    0.889707D-08    0.608218D-05    0.468100D+00
   0    93    0.140656D-08    0.434027D-08    0.333329D-05    0.468100D+00
   0    94    0.688804D-09    0.213342D-08    0.151347D-05    0.468100D+00
   0    95    0.340561D-09    0.105686D-08    0.931800D-06    0.468100D+00
   0    96    0.165970D-09    0.515257D-09    0.454044D-06    0.468100D+00
   0    97    0.814945D-10    0.253182D-09    0.243019D-06    0.468100D+00
   0    98    0.393488D-10    0.123527D-09    0.889234D-07    0.468100D+00
   0    99    0.192590D-10    0.604854D-10    0.388535D-07    0.468100D+00
   0   100    0.947994D-11    0.294020D-10    0.178176D-07    0.468100D+00
   0   101    0.466696D-11    0.144810D-10    0.135849D-07    0.468100D+00
   0   102    0.228313D-11    0.706985D-11    0.436304D-08    0.468100D+00
   0   103    0.112629D-11    0.347176D-11    0.332819D-08    0.468100D+00
   0   104    0.554047D-12    0.170409D-11    0.750562D-09    0.468100D+00
   0   105    0.267218D-12    0.834218D-12    0.508832D-09    0.468100D+00
   0   106    0.132072D-12    0.406679D-12    0.200669D-09    0.468100D+00
   0   107    0.648731D-13    0.199874D-12    0.132824D-09    0.468100D+00
   0   108    0.317337D-13    0.984017D-13    0.607593D-10    0.468100D+00
   0   109    0.155689D-13    0.483385D-13    0.349921D-10    0.468100D+00
   0   110    0.764293D-14    0.237051D-13    0.122856D-10    0.468100D+00
   0   111    0.370936D-14    0.115533D-13    0.800927D-11    0.468100D+00
   0   112    0.179381D-14    0.561962D-14    0.334850D-11    0.468100D+00
   0   113    0.878410D-15    0.275076D-14    0.247147D-11    0.468100D+00
   0   114    0.427660D-15    0.133948D-14    0.134583D-11    0.468100D+00
   0   115    0.211566D-15    0.653300D-15    0.543856D-12    0.468100D+00
   0   116    0.103444D-15    0.318134D-15    0.184679D-12    0.468100D+00
   0   117    0.505917D-16    0.154716D-15    0.110292D-12    0.468100D+00
   0   118    0.243668D-16    0.745909D-16    0.419416D-13    0.468100D+00
   0   119    0.117303D-16    0.360980D-16    0.268789D-13    0.468100D+00
   0   120    0.562462D-17    0.175180D-16    0.175219D-13    0.468100D+00
   0   121    0.273622D-17    0.853388D-17    0.632326D-14    0.468100D+00
   0   122    0.132685D-17    0.409676D-17    0.414095D-14    0.468100D+00
   0   123    0.629642D-18    0.196850D-17    0.191942D-14    0.468100D+00
   0   124    0.303854D-18    0.940999D-18    0.760660D-15    0.468100D+00
   0   125    0.145637D-18    0.455832D-18    0.254209D-15    0.468100D+00
   0   126    0.693379D-19    0.218268D-18    0.158236D-15    0.468100D+00
   0   127    0.332348D-19    0.104140D-18    0.825519D-16    0.468100D+00
   0   128    0.160514D-19    0.495348D-19    0.256215D-16    0.468100D+00
   0   129    0.765826D-20    0.235290D-19    0.199920D-16    0.468100D+00
   0   130    0.363589D-20    0.112609D-19    0.681953D-17    0.468100D+00
   0   131    0.172192D-20    0.534097D-20    0.445711D-17    0.468100D+00
   0   132    0.826421D-21    0.253585D-20    0.244748D-17    0.468100D+00
   0   133    0.389882D-21    0.119400D-20    0.709633D-18    0.468100D+00
   0   134    0.183910D-21    0.563095D-21    0.412601D-18    0.468100D+00
   0   135    0.877953D-22    0.268648D-21    0.180161D-18    0.468100D+00
   0   136    0.404626D-22    0.126033D-21    0.139098D-18    0.468100D+00
   0   137    0.188866D-22    0.585358D-22    0.561030D-19    0.468100D+00
   0   138    0.880808D-23    0.273829D-22    0.313927D-19    0.468100D+00
   0   139    0.410224D-23    0.126092D-22    0.940853D-20    0.468100D+00
   0   140    0.193345D-23    0.584600D-23    0.598400D-20    0.468100D+00
   0   141    0.875379D-24    0.268769D-23    0.325142D-20    0.468100D+00
   0   142    0.404931D-24    0.123560D-23    0.915944D-21    0.468100D+00
   0   143    0.184231D-24    0.566266D-24    0.528820D-21    0.468100D+00
   0   144    0.847697D-25    0.260037D-24    0.187246D-21    0.468100D+00
   0   145    0.387300D-25    0.117843D-24    0.140447D-21    0.468100D+00
   0   146    0.177467D-25    0.537596D-25    0.350440D-22    0.468100D+00
   0   147    0.812173D-26    0.244873D-25    0.291524D-22    0.468100D+00
   0   148    0.368366D-26    0.111189D-25    0.114683D-22    0.468100D+00
   0   149    0.165770D-26    0.499754D-26    0.494784D-23    0.468100D+00
   0   150    0.738501D-27    0.224441D-26    0.226070D-23    0.468100D+00
   0   151    0.326897D-27    0.100138D-26    0.892851D-24    0.468100D+00
   0   152    0.146770D-27    0.444135D-27    0.490586D-24    0.468100D+00
   0   153    0.647604D-28    0.196366D-27    0.205198D-24    0.468100D+00
   0   154    0.287500D-28    0.875217D-28    0.100700D-24    0.468100D+00
   0   155    0.126794D-28    0.383193D-28    0.402370D-25    0.468100D+00
   0   156    0.554092D-29    0.168711D-28    0.145632D-25    0.468100D+00
   0   157    0.239895D-29    0.736923D-29    0.916722D-26    0.468100D+00
   0   158    0.106379D-29    0.321338D-29    0.308118D-26    0.468100D+00
   0   159    0.465086D-30    0.139923D-29    0.113062D-26    0.468100D+00
   0   160    0.200427D-30    0.604658D-30    0.619465D-27    0.468100D+00
   0   161    0.866889D-31    0.259732D-30    0.222764D-27    0.468100D+00
   0   162    0.370553D-31    0.110929D-30    0.111763D-27    0.468100D+00
   0   163    0.158482D-31    0.476567D-31    0.421952D-28    0.468100D+00
   0   164    0.665525D-32    0.202055D-31    0.206105D-28    0.468100D+00
   0   165    0.282892D-32    0.858623D-32    0.100653D-28    0.468100D+00
   0   166    0.118726D-32    0.362730D-32    0.490816D-29    0.468100D+00
   0   167    0.501152D-33    0.151853D-32    0.219502D-29    0.468100D+00
   0   168    0.209252D-33    0.634662D-33    0.917835D-30    0.468100D+00
   0   169    0.877946D-34    0.264871D-33    0.311442D-30    0.468100D+00
   0   170    0.363738D-34    0.110721D-33    0.162223D-30    0.468100D+00
   0   171    0.152890D-34    0.461283D-34    0.620330D-31    0.468100D+00
   0   172    0.627977D-35    0.189528D-34    0.283942D-31    0.468100D+00
   0   173    0.259189D-35    0.776448D-35    0.877266D-32    0.468100D+00
   0   174    0.106049D-35    0.320680D-35    0.495141D-32    0.468100D+00
   0   175    0.434539D-36    0.130533D-35    0.201331D-32    0.468100D+00
   0   176    0.176128D-36    0.532080D-36    0.836144D-33    0.468100D+00
   0   177    0.715701D-37    0.214537D-36    0.304958D-33    0.468100D+00
   0   178    0.285128D-37    0.861403D-37    0.129233D-33    0.468100D+00
   0   179    0.113439D-37    0.342963D-37    0.439717D-34    0.468100D+00
   0   180    0.456723D-38    0.137254D-37    0.170100D-34    0.468100D+00
   0   181    0.184442D-38    0.551303D-38    0.603661D-35    0.468100D+00
   0   182    0.735765D-39    0.219578D-38    0.346120D-35    0.468100D+00
   0   183    0.291907D-39    0.870683D-39    0.132983D-35    0.468100D+00
   0   184    0.114065D-39    0.342907D-39    0.489556D-36    0.468100D+00
   0   185    0.451483D-40    0.134461D-39    0.163363D-36    0.468100D+00
   0   186    0.177241D-40    0.522298D-40    0.658426D-37    0.468100D+00
   0   187    0.686282D-41    0.202998D-40    0.317552D-37    0.468100D+00
   0   188    0.262173D-41    0.782898D-41    0.124029D-37    0.468100D+00
   0   189    0.101378D-41    0.300415D-41    0.498777D-38    0.468100D+00
   0   190    0.387995D-42    0.115529D-41    0.179365D-38    0.468100D+00
   0   191    0.146566D-42    0.437371D-42    0.711413D-39    0.468100D+00
   0   192    0.556489D-43    0.166143D-42    0.214701D-39    0.468100D+00
   0   193    0.214521D-43    0.633487D-43    0.845091D-40    0.468100D+00
   0   194    0.802895D-44    0.238659D-43    0.333539D-40    0.468100D+00
   0   195    0.304573D-44    0.898844D-44    0.160298D-40    0.468100D+00
   0   196    0.114198D-44    0.338126D-44    0.490965D-41    0.468100D+00
   0   197    0.424672D-45    0.125992D-44    0.211208D-41    0.468100D+00
   0   198    0.157366D-45    0.469285D-45    0.687538D-42    0.468100D+00
   0   199    0.586276D-46    0.175054D-45    0.306552D-42    0.468100D+00
   0   200    0.219146D-46    0.649418D-46    0.112387D-42    0.468100D+00
   0   201    0.808719D-47    0.239742D-46    0.345051D-43    0.468100D+00
   0   202    0.292611D-47    0.875679D-47    0.179323D-43    0.468100D+00
   0   203    0.108005D-47    0.317869D-47    0.589602D-44    0.468100D+00
   0   204    0.389220D-48    0.115544D-47    0.208621D-44    0.468100D+00
   0   205    0.142450D-48    0.421221D-48    0.700570D-45    0.468100D+00
   0   206    0.511270D-49    0.151886D-48    0.267450D-45    0.468100D+00
   0   207    0.187367D-49    0.549189D-49    0.103065D-45    0.468100D+00
   0   208    0.665257D-50    0.196815D-49    0.365020D-46    0.468100D+00
   0   209    0.238514D-50    0.704549D-50    0.123504D-46    0.468100D+00
   0   210    0.845502D-51    0.249050D-50    0.430401D-47    0.468100D+00
   0   211    0.294666D-51    0.879081D-51    0.186595D-47    0.468100D+00
   0   212    0.104912D-51    0.310379D-51    0.612389D-48    0.468100D+00
   0   213    0.365347D-52    0.108917D-51    0.234974D-48    0.468100D+00
   0   214    0.128258D-52    0.383177D-52    0.628359D-49    0.468100D+00
   0   215    0.450054D-53    0.133514D-52    0.277209D-49    0.468100D+00
   0   216    0.156232D-53    0.463830D-53    0.101644D-49    0.468100D+00
   0   217    0.542806D-54    0.159958D-53    0.309620D-50    0.468100D+00
   0   218    0.188488D-54    0.555399D-54    0.984637D-51    0.468100D+00
   0   219    0.647267D-55    0.190399D-54    0.323693D-51    0.468100D+00
   0   220    0.222994D-55    0.656623D-55    0.126011D-51    0.468100D+00
   0   221    0.764029D-56    0.224528D-55    0.466563D-52    0.468100D+00
   0   222    0.261735D-56    0.769994D-56    0.150370D-52    0.468100D+00
   0   223    0.889933D-57    0.259807D-56    0.550435D-53    0.468100D+00
   0   224    0.298361D-57    0.872566D-57    0.183389D-53    0.468100D+00
   0   225    0.988799D-58    0.292951D-57    0.632082D-54    0.468100D+00
   0   226    0.328405D-58    0.975789D-58    0.229429D-54    0.468100D+00
   0   227    0.111537D-58    0.325335D-58    0.599417D-55    0.468100D+00
   0   228    0.369059D-59    0.108376D-58    0.250574D-55    0.468100D+00
   0   229    0.122058D-59    0.359093D-59    0.864278D-56    0.468100D+00
   0   230    0.400633D-60    0.118066D-59    0.242994D-56    0.468100D+00
   0   231    0.131330D-60    0.384006D-60    0.876964D-57    0.468100D+00
   0   232    0.435012D-61    0.125809D-60    0.288533D-57    0.468100D+00
   0   233    0.142169D-61    0.411485D-61    0.871745D-58    0.468100D+00
   0   234    0.461742D-62    0.134120D-61    0.329372D-58    0.468100D+00
   0   235    0.147876D-62    0.433625D-62    0.107875D-58    0.468100D+00
   0   236    0.472404D-63    0.139262D-62    0.352112D-59    0.468100D+00
   0   237    0.152799D-63    0.447004D-63    0.918922D-60    0.468100D+00
   0   238    0.488802D-64    0.143426D-63    0.352945D-60    0.468100D+00
   0   239    0.155653D-64    0.456911D-64    0.972026D-61    0.468100D+00
   0   240    0.498427D-65    0.144710D-64    0.299432D-61    0.468100D+00
   0   241    0.155891D-65    0.457648D-65    0.115379D-61    0.468100D+00
   0   242    0.484078D-66    0.144304D-65    0.317301D-62    0.468100D+00
   0   243    0.151292D-66    0.448883D-66    0.104403D-62    0.468100D+00
   0   244    0.481778D-67    0.140144D-66    0.294613D-63    0.468100D+00
   0   245    0.149794D-67    0.440384D-67    0.117018D-63    0.468100D+00
   0   246    0.466829D-68    0.136840D-67    0.329383D-64    0.468100D+00
   0   247    0.144392D-68    0.423235D-68    0.977654D-65    0.468100D+00
   0   248    0.447200D-69    0.130294D-68    0.301730D-65    0.468100D+00
   0   249    0.137978D-69    0.402164D-69    0.937308D-66    0.468100D+00
   0   250    0.417743D-70    0.122979D-69    0.339141D-66    0.468100D+00
   0   251    0.126682D-70    0.376272D-70    0.907625D-67    0.468100D+00
   0   252    0.386731D-71    0.114194D-70    0.304430D-67    0.468100D+00
   0   253    0.118240D-71    0.345973D-71    0.919839D-68    0.468100D+00
   0   254    0.356034D-72    0.103790D-71    0.265071D-68    0.468100D+00
   0   255    0.106796D-72    0.314315D-72    0.766927D-69    0.468100D+00
   0   256    0.319667D-73    0.940811D-73    0.270805D-69    0.468100D+00
   0   257    0.961086D-74    0.279994D-73    0.677178D-70    0.468100D+00
   0   258    0.287643D-74    0.838577D-74    0.210197D-70    0.468100D+00
   0   259    0.850540D-75    0.249424D-74    0.666345D-71    0.468100D+00
   0   260    0.254118D-75    0.739924D-75    0.179795D-71    0.468100D+00
   0   261    0.741218D-76    0.218879D-75    0.562594D-72    0.468100D+00
   0   262    0.219727D-76    0.643860D-76    0.187885D-72    0.468100D+00
   0   263    0.640632D-77    0.187324D-76    0.482610D-73    0.468100D+00
   0   264    0.185178D-77    0.544763D-77    0.159763D-73    0.468100D+00
   0   265    0.540317D-78    0.156702D-77    0.457195D-74    0.468100D+00
   0   266    0.157950D-78    0.456411D-78    0.126167D-74    0.468100D+00
   0   267    0.454493D-79    0.132695D-78    0.360848D-75    0.468100D+00
   0   268    0.129750D-79    0.380587D-79    0.113976D-75    0.468100D+00
   0   269    0.368779D-80    0.108363D-79    0.286168D-76    0.468100D+00
   0   270    0.106263D-80    0.308629D-80    0.858282D-77    0.468100D+00
   0   271    0.305026D-81    0.882878D-81    0.236851D-77    0.468100D+00
   0   272    0.857241D-82    0.248532D-81    0.677023D-78    0.468100D+00
   0   273    0.241736D-82    0.701464D-82    0.217776D-78    0.468100D+00
   0   274    0.678364D-83    0.198670D-82    0.561521D-79    0.468100D+00
   0   275    0.190378D-83    0.557429D-83    0.150735D-79    0.468100D+00
   0   276    0.528729D-84    0.155173D-83    0.490412D-80    0.468100D+00
   0   277    0.146394D-84    0.430286D-84    0.140591D-80    0.468100D+00
   0   278    0.408720D-85    0.119907D-84    0.383151D-81    0.468100D+00
   0   279    0.113988D-85    0.333329D-85    0.101296D-81    0.468100D+00
   0   280    0.316591D-86    0.920151D-86    0.286797D-82    0.468100D+00
   0   281    0.870012D-87    0.252424D-86    0.718809D-83    0.468100D+00
   0   282    0.237454D-87    0.693129D-87    0.231989D-83    0.468100D+00
   0   283    0.642323D-88    0.189394D-87    0.607931D-84    0.468100D+00
   0   284    0.177583D-88    0.515154D-88    0.164421D-84    0.468100D+00
   0   285    0.478966D-89    0.139449D-88    0.472739D-85    0.468100D+00
   0   286    0.128940D-89    0.376323D-89    0.115264D-85    0.468100D+00
   0   287    0.348299D-90    0.100945D-89    0.339706D-86    0.468100D+00
   0   288    0.941812D-91    0.272075D-90    0.815207D-87    0.468100D+00
   0   289    0.249073D-91    0.728726D-91    0.261304D-87    0.468100D+00
   0   290    0.671716D-92    0.194072D-91    0.660042D-88    0.468100D+00
   0   291    0.179004D-92    0.515726D-92    0.155663D-88    0.468100D+00
   0   292    0.472622D-93    0.136364D-92    0.484289D-89    0.468100D+00
   0   293    0.124771D-93    0.359535D-93    0.127310D-89    0.468100D+00
   0   294    0.323924D-94    0.946292D-94    0.304933D-90    0.468100D+00
   0   295    0.857601D-95    0.247641D-94    0.775153D-91    0.468100D+00
   0   296    0.220785D-95    0.647792D-95    0.207240D-91    0.468100D+00
   0   297    0.578443D-96    0.169204D-95    0.607675D-92    0.468100D+00
   0   298    0.150348D-96    0.436488D-96    0.160906D-92    0.468100D+00
   0   299    0.389157D-97    0.113698D-96    0.397776D-93    0.468100D+00
   0   300    0.101113D-97    0.295183D-97    0.971373D-94    0.468100D+00
   0   301    0.259185D-98    0.759797D-98    0.272668D-94    0.468100D+00
   0   302    0.668652D-99    0.195657D-98    0.657872D-95    0.468100D+00
   0   303    0.172804D-99    0.499578D-99    0.171237D-95    0.468100D+00
   0   304    0.438105-100    0.126556D-99    0.421231D-96    0.468100D+00
   0   305    0.110016-100    0.322171-100    0.126567D-96    0.468100D+00
   0   306    0.278313-101    0.813701-101    0.289893D-97    0.468100D+00
   0   307    0.703976-102    0.204373-101    0.723660D-98    0.468100D+00
   0   308    0.176247-102    0.515052-102    0.174374D-98    0.468100D+00
   0   309    0.443853-103    0.128839-102    0.456640D-99    0.468100D+00
   0   310    0.110606-103    0.322017-103    0.118675D-99    0.468100D+00
   0   311    0.275799-104    0.803635-104    0.292042-100    0.468100D+00
   0   312    0.688652-105    0.199074-104    0.763174-101    0.468100D+00
   0   313    0.168465-105    0.492225-105    0.196587-101    0.468100D+00
   0   314    0.413307-106    0.121298-105    0.428424-102    0.468100D+00
   0   315    0.101584-106    0.298751-106    0.114064-102    0.468100D+00
   0   316    0.251051-107    0.731368-107    0.265093-103    0.468100D+00
   0   317    0.610133-108    0.177764-107    0.710771-104    0.468100D+00
   0   318    0.148269-108    0.431625-108    0.175609-104    0.468100D+00
   0   319    0.360314-109    0.104680-108    0.396014-105    0.468100D+00
   0   320    0.875129-110    0.254900-109    0.977679-106    0.468100D+00
   0   321    0.208696-110    0.614928-110    0.248104-106    0.468100D+00
   0   322    0.500668-111    0.146957-110    0.589630-107    0.468100D+00
   0   323    0.121280-111    0.351371-111    0.131962-107    0.468100D+00
   0   324    0.290298-112    0.837372-112    0.311114-108    0.468100D+00
   0   325    0.691553-113    0.200522-112    0.780615-109    0.468100D+00
   0   326    0.166039-113    0.480391-113    0.197061-109    0.468100D+00
   0   327    0.396494-114    0.114196-113    0.457862-110    0.468100D+00
   0   328    0.939114-115    0.271758-114    0.104429-110    0.468100D+00
   0   329    0.221954-115    0.643351-115    0.272751-111    0.468100D+00
   0   330    0.517292-116    0.150496-115    0.603295-112    0.468100D+00
   0   331    0.121884-116    0.352161-116    0.136441-112    0.468100D+00
   0   332    0.285011-117    0.823377-117    0.340058-113    0.468100D+00
   0   333    0.656446-118    0.190306-117    0.844026-114    0.468100D+00
   0   334    0.151694-118    0.441535-118    0.179494-114    0.468100D+00
   0   335    0.349537-119    0.101520-118    0.456184-115    0.468100D+00
   0   336    0.802862-120    0.234493-119    0.105649-115    0.468100D+00
   0   337    0.184535-120    0.536753-120    0.240667-116    0.468100D+00
   0   338    0.420379-121    0.123317-120    0.536426-117    0.468100D+00
   0   339    0.961246-122    0.282158-121    0.126726-117    0.468100D+00
   0   340    0.220296-122    0.640032-122    0.270799-118    0.468100D+00
   0   341    0.507039-123    0.145553-122    0.575485-119    0.468100D+00
   0   342    0.114924-123    0.331573-123    0.138373-119    0.468100D+00
   0   343    0.259299-124    0.746197-124    0.304755-120    0.468100D+00
   0   344    0.581458-125    0.167917-124    0.741802-121    0.468100D+00
   0   345    0.130666-125    0.376140-125    0.154947-121    0.468100D+00
   0   346    0.288117-126    0.837623-126    0.384698-122    0.468100D+00
   0   347    0.647198-127    0.186397-126    0.816424-123    0.468100D+00
   0   348    0.142725-127    0.413013-127    0.190599-123    0.468100D+00
   0   349    0.315483-128    0.923724-128    0.412309-124    0.468100D+00
   0   350    0.704585-129    0.204375-128    0.954085-125    0.468100D+00
   0   351    0.156409-129    0.451309-129    0.194853-125    0.468100D+00
   0   352    0.342470-130    0.984045-130    0.473848-126    0.468100D+00
   0   353    0.748177-131    0.216049-130    0.103459-126    0.468100D+00
   0   354    0.162812-131    0.473494-131    0.227614-127    0.468100D+00
   0   355    0.353681-132    0.103146-131    0.446757-128    0.468100D+00
   0   356    0.771537-133    0.223768-132    0.978146-129    0.468100D+00
   0   357    0.167050-133    0.483357-133    0.217639-129    0.468100D+00
   0   358    0.362261-134    0.104838-133    0.469131-130    0.468100D+00
   0   359    0.783556-135    0.225788-134    0.100052-130    0.468100D+00
   0   360    0.166937-135    0.486489-135    0.222431-131    0.468100D+00
   0   361    0.358257-136    0.104323-135    0.511476-132    0.468100D+00
   0   362    0.762281-137    0.221615-136    0.104176-132    0.468100D+00
   0   363    0.163283-137    0.475094-137    0.238307-133    0.468100D+00
   0   364    0.346360-138    0.100680-137    0.504569-134    0.468100D+00
   0   365    0.735871-139    0.213004-138    0.100631-134    0.468100D+00
   0   366    0.155705-139    0.450249-139    0.215060-135    0.468100D+00
   0   367    0.326597-140    0.942899-140    0.457504-136    0.468100D+00
   0   368    0.686916-141    0.198788-140    0.915909-137    0.468100D+00
   0   369    0.144414-141    0.417234-141    0.205119-137    0.468100D+00
   0   370    0.299342-142    0.868532-142    0.440153-138    0.468100D+00
   0   371    0.621808-143    0.181086-142    0.899121-139    0.468100D+00
   0   372    0.129247-143    0.374141-143    0.197123-139    0.468100D+00
   0   373    0.268690-144    0.770829-144    0.381447-140    0.468100D+00
   0   374    0.552798-145    0.159401-144    0.793877-141    0.468100D+00
   0   375    0.113911-145    0.329065-145    0.165229-141    0.468100D+00
   0   376    0.234258-146    0.675432-146    0.347503-142    0.468100D+00
   0   377    0.477076-147    0.138170-146    0.670533-143    0.468100D+00
   0   378    0.968258-148    0.280650-147    0.144207-143    0.468100D+00
   0   379    0.197024-148    0.570012-148    0.285391-144    0.468100D+00
   0   380    0.395632-149    0.114764-148    0.576370-145    0.468100D+00
   0   381    0.798082-150    0.232234-149    0.114870-145    0.468100D+00
   0   382    0.161931-150    0.469266-150    0.251743-146    0.468100D+00
   0   383    0.326372-151    0.943783-151    0.488706-147    0.468100D+00
   0   384    0.656141-152    0.188960-151    0.101149-147    0.468100D+00
   0   385    0.131116-152    0.378856-152    0.189867-148    0.468100D+00
   0   386    0.262122-153    0.752872-153    0.397901-149    0.468100D+00
   0   387    0.515488-154    0.149515-153    0.849913-150    0.468100D+00
   0   388    0.103068-154    0.296342-154    0.158923-150    0.468100D+00
   0   389    0.202870-155    0.586411-155    0.322472-151    0.468100D+00
   0   390    0.398109-156    0.115529-155    0.609206-152    0.468100D+00
   0   391    0.780960-157    0.227070-156    0.129159-152    0.468100D+00
   0   392    0.153580-157    0.441877-157    0.243492-153    0.468100D+00
   0   393    0.298663-158    0.860664-158    0.476906-154    0.468100D+00
   0   394    0.583254-159    0.169161-158    0.962297-155    0.468100D+00
   0   395    0.114443-159    0.331899-159    0.187327-155    0.468100D+00
   0   396    0.222131-160    0.643647-160    0.343796-156    0.468100D+00
   0   397    0.431371-161    0.124354-160    0.716943-157    0.468100D+00