variables =  "IG"  "JG"  "PHI"  "Temp."  "Latent_heat"  "mm"
ZONE  I=  401  J=  101
   0     0    0.100000D+01    0.834595D+00    0.348958D-05    0.287940D+00
   0     1    0.100000D+01    0.834595D+00   -0.806578D-05    0.287940D+00
   0     2    0.100000D+01    0.836554D+00    0.489552D-05    0.285517D+00
   0     3    0.100000D+01    0.840436D+00   -0.294749D-04    0.280575D+00
   0     4    0.100000D+01    0.846168D+00    0.311348D-03    0.272923D+00
   0     5    0.999999D+00    0.853644D+00   -0.545685D-03    0.262269D+00
   0     6    0.999997D+00    0.862726D+00   -0.315743D-02    0.248209D+00
   0     7    0.999990D+00    0.873247D+00    0.573775D-02    0.230244D+00
   0     8    0.999970D+00    0.885016D+00    0.183091D-01    0.207804D+00
   0     9    0.999916D+00    0.897819D+00   -0.428484D-01    0.180329D+00
   0    10    0.999766D+00    0.911434D+00    0.950068D-01    0.147432D+00
   0    11    0.999365D+00    0.925618D+00    0.198487D+00    0.109182D+00
   0    12    0.998314D+00    0.940106D+00   -0.513136D+00    0.664036D-01
   0    13    0.995700D+00    0.954572D+00   -0.172128D+01    0.211775D-01
   0    14    0.989458D+00    0.968805D+00   -0.753349D+01   -0.242046D-01
   0    15    0.975158D+00    0.982040D+00    0.533494D+01   -0.659524D-01
   0    16    0.944015D+00    0.993482D+00    0.230229D+02   -0.987121D-01
   0    17    0.885397D+00    0.100106D+01   -0.147320D+02   -0.121546D+00
   0    18    0.786379D+00    0.100522D+01   -0.873748D+02   -0.134366D+00
   0    19    0.650771D+00    0.100591D+01    0.293073D+02   -0.132007D+00
   0    20    0.525365D+00    0.999091D+00   -0.688352D+02   -0.111797D+00
   0    21    0.442265D+00    0.990812D+00    0.966996D+02   -0.965946D-01
   0    22    0.429650D+00    0.979381D+00    0.162272D+03   -0.534735D-01
   0    23    0.464883D+00    0.971570D+00   -0.159451D+02   -0.396488D-01
   0    24    0.535841D+00    0.975124D+00   -0.267083D+01   -0.450971D-01
   0    25    0.600822D+00    0.983680D+00    0.147251D+03   -0.711957D-01
   0    26    0.644936D+00    0.990246D+00    0.351556D+02   -0.937042D-01
   0    27    0.657846D+00    0.992837D+00    0.207371D+03   -0.992413D-01
   0    28    0.648733D+00    0.998716D+00    0.352231D+02   -0.114382D+00
   0    29    0.630130D+00    0.998222D+00    0.180651D+03   -0.111890D+00
   0    30    0.612343D+00    0.999956D+00   -0.257209D+03   -0.111845D+00
   0    31    0.592808D+00    0.100011D+01    0.104565D+02   -0.120735D+00
   0    32    0.583365D+00    0.995571D+00    0.196031D+03   -0.108287D+00
   0    33    0.581862D+00    0.989300D+00    0.577433D+02   -0.839020D-01
   0    34    0.585290D+00    0.990113D+00    0.311521D+02   -0.876864D-01
   0    35    0.591337D+00    0.986754D+00   -0.190912D+03   -0.833848D-01
   0    36    0.596811D+00    0.987879D+00   -0.839436D+02   -0.804150D-01
   0    37    0.597036D+00    0.989649D+00    0.159194D+03   -0.897331D-01
   0    38    0.595919D+00    0.988978D+00   -0.116212D+02   -0.910337D-01
   0    39    0.589164D+00    0.987661D+00   -0.736870D+02   -0.881388D-01
   0    40    0.591653D+00    0.990230D+00   -0.153089D+03   -0.882539D-01
   0    41    0.588601D+00    0.986227D+00    0.809492D+02   -0.816487D-01
   0    42    0.587381D+00    0.986228D+00   -0.165698D+03   -0.821180D-01
   0    43    0.588365D+00    0.987605D+00    0.126540D+03   -0.803412D-01
   0    44    0.585607D+00    0.988321D+00   -0.115762D+03   -0.856902D-01
   0    45    0.582454D+00    0.985813D+00   -0.243153D+03   -0.788686D-01
   0    46    0.577273D+00    0.988076D+00    0.261784D+01   -0.794685D-01
   0    47    0.575853D+00    0.983949D+00   -0.110782D+03   -0.710052D-01
   0    48    0.572428D+00    0.984353D+00    0.216259D+03   -0.696141D-01
   0    49    0.571559D+00    0.983836D+00    0.120238D+03   -0.706901D-01
   0    50    0.572289D+00    0.984959D+00    0.122134D+03   -0.672063D-01
   0    51    0.573371D+00    0.984424D+00   -0.312174D+02   -0.790512D-01
   0    52    0.578246D+00    0.988753D+00   -0.111300D+02   -0.825854D-01
   0    53    0.579047D+00    0.991491D+00   -0.502436D+02   -0.911837D-01
   0    54    0.579733D+00    0.985478D+00    0.769704D+02   -0.738523D-01
   0    55    0.576682D+00    0.984767D+00   -0.171606D+03   -0.757396D-01
   0    56    0.578044D+00    0.984149D+00   -0.176928D+03   -0.741025D-01
   0    57    0.581689D+00    0.986264D+00   -0.582310D+02   -0.739757D-01
   0    58    0.581080D+00    0.986280D+00   -0.192590D+03   -0.742087D-01
   0    59    0.579220D+00    0.984856D+00   -0.357435D+02   -0.732205D-01
   0    60    0.578918D+00    0.985381D+00    0.678391D+02   -0.790345D-01
   0    61    0.576783D+00    0.987391D+00   -0.563546D+02   -0.846682D-01
   0    62    0.577132D+00    0.987766D+00    0.980413D+02   -0.758518D-01
   0    63    0.576021D+00    0.986765D+00   -0.771892D+02   -0.815923D-01
   0    64    0.575835D+00    0.985558D+00    0.205447D+03   -0.755180D-01
   0    65    0.579304D+00    0.988321D+00    0.136872D+03   -0.805949D-01
   0    66    0.577413D+00    0.985710D+00   -0.405364D+02   -0.714374D-01
   0    67    0.572756D+00    0.984156D+00    0.218217D+03   -0.753307D-01
   0    68    0.572255D+00    0.984994D+00    0.178187D+03   -0.667879D-01
   0    69    0.573544D+00    0.985851D+00    0.217332D+03   -0.773502D-01
   0    70    0.574505D+00    0.983115D+00    0.224088D+02   -0.720112D-01
   0    71    0.579491D+00    0.984461D+00   -0.178038D+03   -0.661254D-01
   0    72    0.581499D+00    0.983036D+00    0.925727D+02   -0.616335D-01
   0    73    0.578522D+00    0.982280D+00    0.209668D+03   -0.664340D-01
   0    74    0.579476D+00    0.985659D+00   -0.991033D+02   -0.685791D-01
   0    75    0.578411D+00    0.986728D+00    0.115059D+03   -0.816485D-01
   0    76    0.574692D+00    0.989331D+00    0.802752D+02   -0.868907D-01
   0    77    0.572780D+00    0.985072D+00   -0.118763D+03   -0.804298D-01
   0    78    0.573319D+00    0.986503D+00   -0.287209D+02   -0.799243D-01
   0    79    0.576102D+00    0.985632D+00    0.313539D+02   -0.743400D-01
   0    80    0.573443D+00    0.983270D+00    0.152581D+03   -0.720812D-01
   0    81    0.573254D+00    0.982994D+00    0.510309D+02   -0.639148D-01
   0    82    0.578261D+00    0.985700D+00    0.132571D+03   -0.760310D-01
   0    83    0.577780D+00    0.984785D+00   -0.204679D+03   -0.770578D-01
   0    84    0.574922D+00    0.985701D+00   -0.787287D+02   -0.729579D-01
   0    85    0.574096D+00    0.985656D+00    0.424178D+02   -0.738190D-01
   0    86    0.573979D+00    0.986520D+00   -0.298509D+02   -0.777383D-01
   0    87    0.571451D+00    0.985529D+00    0.182063D+03   -0.733423D-01
   0    88    0.572752D+00    0.987355D+00    0.146905D+02   -0.769838D-01
   0    89    0.571417D+00    0.986119D+00    0.113776D+03   -0.763466D-01
   0    90    0.573388D+00    0.984655D+00   -0.489080D+02   -0.760713D-01
   0    91    0.574105D+00    0.984027D+00    0.192225D+02   -0.703965D-01
   0    92    0.572531D+00    0.985731D+00    0.769238D+02   -0.820214D-01
   0    93    0.574004D+00    0.984437D+00   -0.664234D+02   -0.694062D-01
   0    94    0.573256D+00    0.981969D+00   -0.883650D+02   -0.656989D-01
   0    95    0.573043D+00    0.982966D+00   -0.646132D+02   -0.684526D-01
   0    96    0.575677D+00    0.983823D+00   -0.520778D+02   -0.717077D-01
   0    97    0.574522D+00    0.983626D+00   -0.138087D+03   -0.670354D-01
   0    98    0.577265D+00    0.984532D+00    0.402044D+02   -0.764041D-01
   0    99    0.575805D+00    0.987683D+00   -0.156225D+03   -0.774390D-01
   0   100    0.576092D+00    0.987684D+00    0.180359D+03   -0.786399D-01
   0   101    0.576748D+00    0.986092D+00    0.187909D+03   -0.736689D-01
   0   102    0.574821D+00    0.982796D+00   -0.120300D+03   -0.718806D-01
   0   103    0.574801D+00    0.982958D+00   -0.157431D+02   -0.700957D-01
   0   104    0.574822D+00    0.984277D+00   -0.179355D+03   -0.750434D-01
   0   105    0.575205D+00    0.985847D+00   -0.968516D+02   -0.799101D-01
   0   106    0.578060D+00    0.986233D+00   -0.207407D+03   -0.826525D-01
   0   107    0.579990D+00    0.989822D+00   -0.118129D+03   -0.849849D-01
   0   108    0.578843D+00    0.986900D+00    0.181804D+03   -0.750042D-01
   0   109    0.579449D+00    0.988402D+00   -0.190475D+03   -0.839005D-01
   0   110    0.578810D+00    0.984632D+00   -0.128044D+03   -0.772618D-01
   0   111    0.576573D+00    0.982300D+00    0.147302D+03   -0.696074D-01
   0   112    0.579582D+00    0.986245D+00    0.397516D+01   -0.851318D-01
   0   113    0.576199D+00    0.988321D+00    0.117380D+02   -0.805549D-01
   0   114    0.578777D+00    0.986864D+00   -0.321673D+02   -0.746654D-01
   0   115    0.575549D+00    0.989315D+00   -0.106164D+02   -0.825694D-01
   0   116    0.574220D+00    0.985873D+00    0.134257D+03   -0.751982D-01
   0   117    0.573856D+00    0.984394D+00    0.261064D+03   -0.698917D-01
   0   118    0.579284D+00    0.986033D+00   -0.231246D+03   -0.760886D-01
   0   119    0.576957D+00    0.986433D+00    0.184107D+03   -0.825884D-01
   0   120    0.579444D+00    0.986181D+00   -0.176889D+03   -0.803934D-01
   0   121    0.579784D+00    0.982886D+00    0.193720D+02   -0.686044D-01
   0   122    0.580041D+00    0.986883D+00    0.136069D+03   -0.741528D-01
   0   123    0.581985D+00    0.989461D+00   -0.105092D+02   -0.862599D-01
   0   124    0.579065D+00    0.989832D+00   -0.582624D+02   -0.879976D-01
   0   125    0.582296D+00    0.989484D+00   -0.639461D+02   -0.869881D-01
   0   126    0.582191D+00    0.990694D+00   -0.160580D+03   -0.875636D-01
   0   127    0.580087D+00    0.991890D+00   -0.132626D+03   -0.906682D-01
   0   128    0.579318D+00    0.989512D+00   -0.123890D+03   -0.894022D-01
   0   129    0.577330D+00    0.985663D+00   -0.210207D+02   -0.710958D-01
   0   130    0.576524D+00    0.982699D+00   -0.231662D+02   -0.705502D-01
   0   131    0.577597D+00    0.985942D+00    0.422267D+02   -0.757701D-01
   0   132    0.578329D+00    0.983900D+00   -0.456748D+02   -0.652361D-01
   0   133    0.577569D+00    0.985629D+00    0.144519D+03   -0.733403D-01
   0   134    0.580010D+00    0.984362D+00   -0.296735D+02   -0.742739D-01
   0   135    0.578146D+00    0.984769D+00    0.883834D+01   -0.717891D-01
   0   136    0.575719D+00    0.984408D+00   -0.955087D+02   -0.710183D-01
   0   137    0.575859D+00    0.986764D+00   -0.798551D+02   -0.828725D-01
   0   138    0.576351D+00    0.986491D+00    0.906872D+02   -0.719407D-01
   0   139    0.572848D+00    0.984877D+00    0.968098D+02   -0.792808D-01
   0   140    0.574726D+00    0.987221D+00   -0.277618D+02   -0.874095D-01
   0   141    0.576556D+00    0.982088D+00    0.136284D+03   -0.682168D-01
   0   142    0.577654D+00    0.986760D+00    0.590383D+02   -0.791564D-01
   0   143    0.573549D+00    0.983837D+00    0.168006D+03   -0.733192D-01
   0   144    0.574079D+00    0.989416D+00    0.124234D+03   -0.849985D-01
   0   145    0.574721D+00    0.985469D+00    0.164439D+03   -0.698396D-01
   0   146    0.576531D+00    0.986677D+00   -0.838320D+01   -0.743840D-01
   0   147    0.572370D+00    0.985331D+00   -0.920328D+02   -0.783255D-01
   0   148    0.574283D+00    0.987790D+00    0.191491D+03   -0.807132D-01
   0   149    0.579594D+00    0.980529D+00   -0.227008D+02   -0.620415D-01
   0   150    0.575257D+00    0.983584D+00    0.329900D+02   -0.721500D-01
   0   151    0.575860D+00    0.986617D+00   -0.124382D+03   -0.742149D-01
   0   152    0.575349D+00    0.982591D+00    0.139091D+03   -0.731957D-01
   0   153    0.570228D+00    0.981795D+00    0.644182D+00   -0.667119D-01
   0   154    0.568039D+00    0.978834D+00    0.955697D+02   -0.556660D-01
   0   155    0.562133D+00    0.966503D+00   -0.286930D+02   -0.150698D-01
   0   156    0.541504D+00    0.943077D+00    0.480285D+01    0.580077D-01
   0   157    0.497695D+00    0.896665D+00    0.253262D+03    0.191582D+00
   0   158    0.416286D+00    0.796103D+00    0.197271D+03    0.331082D+00
   0   159    0.297023D+00    0.623676D+00    0.376301D+03    0.410097D+00
   0   160    0.186755D+00    0.429614D+00    0.225427D+03    0.442281D+00
   0   161    0.103640D+00    0.261947D+00    0.234629D+03    0.455983D+00
   0   162    0.533084D-01    0.146964D+00    0.135029D+03    0.462251D+00
   0   163    0.273822D-01    0.782691D-01    0.511062D+02    0.465233D+00
   0   164    0.136910D-01    0.405255D-01    0.289412D+02    0.466676D+00
   0   165    0.676603D-02    0.204398D-01    0.161710D+02    0.467394D+00
   0   166    0.336901D-02    0.103138D-01    0.873441D+01    0.467748D+00
   0   167    0.166779D-02    0.507936D-02    0.319184D+01    0.467927D+00
   0   168    0.811999D-03    0.250456D-02    0.197097D+01    0.468015D+00
   0   169    0.393541D-03    0.124019D-02    0.117782D+01    0.468058D+00
   0   170    0.193537D-03    0.606260D-03    0.521451D+00    0.468079D+00
   0   171    0.961599D-04    0.298238D-03    0.232441D+00    0.468090D+00
   0   172    0.472148D-04    0.146426D-03    0.117041D+00    0.468095D+00
   0   173    0.226682D-04    0.715375D-04    0.565625D-01    0.468097D+00
   0   174    0.112510D-04    0.350629D-04    0.298093D-01    0.468098D+00
   0   175    0.552313D-05    0.171840D-04    0.112014D-01    0.468099D+00
   0   176    0.272107D-05    0.841713D-05    0.512983D-02    0.468099D+00
   0   177    0.133986D-05    0.413443D-05    0.322573D-02    0.468099D+00
   0   178    0.651310D-06    0.201387D-05    0.116610D-02    0.468100D+00
   0   179    0.321900D-06    0.992378D-06    0.919626D-03    0.468100D+00
   0   180    0.156761D-06    0.485695D-06    0.254375D-03    0.468100D+00
   0   181    0.764370D-07    0.237491D-06    0.154018D-03    0.468100D+00
   0   182    0.376758D-07    0.116123D-06    0.503128D-04    0.468100D+00
   0   183    0.185625D-07    0.571666D-07    0.403604D-04    0.468100D+00
   0   184    0.916195D-08    0.279924D-07    0.192241D-04    0.468100D+00
   0   185    0.445847D-08    0.137147D-07    0.653954D-05    0.468100D+00
   0   186    0.217238D-08    0.668394D-08    0.609945D-05    0.468100D+00
   0   187    0.106599D-08    0.329624D-08    0.273713D-05    0.468100D+00
   0   188    0.522673D-09    0.160207D-08    0.106342D-05    0.468100D+00
   0   189    0.255771D-09    0.790291D-09    0.670294D-06    0.468100D+00
   0   190    0.126077D-09    0.387630D-09    0.274069D-06    0.468100D+00
   0   191    0.609332D-10    0.189810D-09    0.189239D-06    0.468100D+00
   0   192    0.301285D-10    0.932311D-10    0.900165D-07    0.468100D+00
   0   193    0.147122D-10    0.456087D-10    0.432378D-07    0.468100D+00
   0   194    0.715600D-11    0.224249D-10    0.151191D-07    0.468100D+00
   0   195    0.353137D-11    0.109569D-10    0.960964D-08    0.468100D+00
   0   196    0.173718D-11    0.537020D-11    0.519822D-08    0.468100D+00
   0   197    0.848274D-12    0.262503D-11    0.157143D-08    0.468100D+00
   0   198    0.413628D-12    0.128420D-11    0.869186D-09    0.468100D+00
   0   199    0.202712D-12    0.629363D-12    0.362694D-09    0.468100D+00
   0   200    0.998137D-13    0.307961D-12    0.274625D-09    0.468100D+00
   0   201    0.491274D-13    0.151200D-12    0.957006D-10    0.468100D+00
   0   202    0.239571D-13    0.741757D-13    0.580113D-10    0.468100D+00
   0   203    0.117737D-13    0.364589D-13    0.271197D-10    0.468100D+00
   0   204    0.572323D-14    0.177370D-13    0.172752D-10    0.468100D+00
   0   205    0.281083D-14    0.872298D-14    0.588583D-11    0.468100D+00
   0   206    0.137310D-14    0.427062D-14    0.307503D-11    0.468100D+00
   0   207    0.671331D-15    0.208944D-14    0.191326D-11    0.468100D+00
   0   208    0.331239D-15    0.102368D-14    0.904320D-12    0.468100D+00
   0   209    0.163006D-15    0.503196D-15    0.266804D-12    0.468100D+00
   0   210    0.797640D-16    0.247036D-15    0.198258D-12    0.468100D+00
   0   211    0.391390D-16    0.120177D-15    0.102934D-12    0.468100D+00
   0   212    0.187759D-16    0.587243D-16    0.449589D-13    0.468100D+00
   0   213    0.935273D-17    0.288986D-16    0.245921D-13    0.468100D+00
   0   214    0.457832D-17    0.141221D-16    0.721252D-14    0.468100D+00
   0   215    0.222746D-17    0.694609D-17    0.509763D-14    0.468100D+00
   0   216    0.109546D-17    0.339051D-17    0.191534D-14    0.468100D+00
   0   217    0.534518D-18    0.166063D-17    0.121131D-14    0.468100D+00
   0   218    0.261845D-18    0.807097D-18    0.446227D-15    0.468100D+00
   0   219    0.128774D-18    0.397767D-18    0.184318D-15    0.468100D+00
   0   220    0.631394D-19    0.194278D-18    0.177102D-15    0.468100D+00
   0   221    0.310719D-19    0.957649D-19    0.426875D-16    0.468100D+00
   0   222    0.152735D-19    0.472090D-19    0.342363D-16    0.468100D+00
   0   223    0.748655D-20    0.231396D-19    0.157025D-16    0.468100D+00
   0   224    0.366733D-20    0.113804D-19    0.659191D-17    0.468100D+00
   0   225    0.178840D-20    0.556028D-20    0.573755D-17    0.468100D+00
   0   226    0.874773D-21    0.271907D-20    0.138098D-17    0.468100D+00
   0   227    0.426483D-21    0.132242D-20    0.123517D-17    0.468100D+00
   0   228    0.210262D-21    0.648761D-21    0.338718D-18    0.468100D+00
   0   229    0.102852D-21    0.318032D-21    0.295974D-18    0.468100D+00
   0   230    0.502538D-22    0.156148D-21    0.120282D-18    0.468100D+00
   0   231    0.245376D-22    0.767579D-22    0.746312D-19    0.468100D+00
   0   232    0.121572D-22    0.375498D-22    0.189761D-19    0.468100D+00
   0   233    0.598991D-23    0.183071D-22    0.137734D-19    0.468100D+00
   0   234    0.289240D-23    0.898937D-23    0.710530D-20    0.468100D+00
   0   235    0.141802D-23    0.440635D-23    0.283809D-20    0.468100D+00
   0   236    0.694686D-24    0.215316D-23    0.157434D-20    0.468100D+00
   0   237    0.339316D-24    0.105833D-23    0.876370D-21    0.468100D+00
   0   238    0.166221D-24    0.516603D-24    0.389414D-21    0.468100D+00
   0   239    0.820478D-25    0.254443D-24    0.156907D-21    0.468100D+00
   0   240    0.408398D-25    0.125060D-24    0.105574D-21    0.468100D+00
   0   241    0.195142D-25    0.613831D-25    0.424441D-22    0.468100D+00
   0   242    0.944392D-26    0.298976D-25    0.199250D-22    0.468100D+00
   0   243    0.463965D-26    0.145697D-25    0.114927D-22    0.468100D+00
   0   244    0.230300D-26    0.716208D-26    0.365352D-23    0.468100D+00
   0   245    0.113449D-26    0.351337D-26    0.204964D-23    0.468100D+00
   0   246    0.559582D-27    0.172573D-26    0.989994D-24    0.468100D+00
   0   247    0.271222D-27    0.848149D-27    0.738074D-24    0.468100D+00
   0   248    0.133268D-27    0.414404D-27    0.287205D-24    0.468100D+00
   0   249    0.654545D-28    0.202233D-27    0.175386D-24    0.468100D+00
   0   250    0.322087D-28    0.995499D-28    0.917353D-25    0.468100D+00
   0   251    0.158647D-28    0.488555D-28    0.473750D-25    0.468100D+00
   0   252    0.765703D-29    0.240628D-28    0.246547D-25    0.468100D+00
   0   253    0.372679D-29    0.117512D-28    0.747595D-26    0.468100D+00
   0   254    0.183059D-29    0.574885D-29    0.543382D-26    0.468100D+00
   0   255    0.899069D-30    0.283190D-29    0.179160D-26    0.468100D+00
   0   256    0.445954D-30    0.139072D-29    0.933180D-27    0.468100D+00
   0   257    0.219822D-30    0.680889D-30    0.422957D-27    0.468100D+00
   0   258    0.107290D-30    0.331333D-30    0.196617D-27    0.468100D+00
   0   259    0.523591D-31    0.163553D-30    0.167776D-27    0.468100D+00
   0   260    0.256288D-31    0.793158D-31    0.451698D-28    0.468100D+00
   0   261    0.126119D-31    0.388936D-31    0.270462D-28    0.468100D+00
   0   262    0.615589D-32    0.193005D-31    0.994932D-29    0.468100D+00
   0   263    0.303521D-32    0.942779D-32    0.550788D-29    0.468100D+00
   0   264    0.149089D-32    0.461717D-32    0.443205D-29    0.468100D+00
   0   265    0.734026D-33    0.227592D-32    0.161246D-29    0.468100D+00
   0   266    0.368376D-33    0.111898D-32    0.931195D-30    0.468100D+00
   0   267    0.179582D-33    0.550402D-33    0.320389D-30    0.468100D+00
   0   268    0.869966D-34    0.271036D-33    0.240235D-30    0.468100D+00
   0   269    0.427303D-34    0.132296D-33    0.128023D-30    0.468100D+00
   0   270    0.209815D-34    0.648089D-34    0.543915D-31    0.468100D+00
   0   271    0.102607D-34    0.318791D-34    0.326946D-31    0.468100D+00
   0   272    0.507491D-35    0.156662D-34    0.112919D-31    0.468100D+00
   0   273    0.247546D-35    0.764425D-35    0.769538D-32    0.468100D+00
   0   274    0.121234D-35    0.375308D-35    0.255319D-32    0.468100D+00
   0   275    0.593506D-36    0.183792D-35    0.156494D-32    0.468100D+00
   0   276    0.291230D-36    0.903934D-36    0.684854D-33    0.468100D+00
   0   277    0.143324D-36    0.443822D-36    0.440399D-33    0.468100D+00
   0   278    0.704618D-37    0.218115D-36    0.167561D-33    0.468100D+00
   0   279    0.343061D-37    0.106680D-36    0.871186D-34    0.468100D+00
   0   280    0.165878D-37    0.521800D-37    0.353364D-34    0.468100D+00
   0   281    0.817407D-38    0.255649D-37    0.240870D-34    0.468100D+00
   0   282    0.405872D-38    0.126094D-37    0.735648D-35    0.468100D+00
   0   283    0.199176D-38    0.617700D-38    0.407218D-35    0.468100D+00
   0   284    0.979333D-39    0.303176D-38    0.176373D-35    0.468100D+00
   0   285    0.471113D-39    0.148429D-38    0.896843D-36    0.468100D+00
   0   286    0.231070D-39    0.726994D-39    0.402791D-36    0.468100D+00
   0   287    0.113792D-39    0.354976D-39    0.332440D-36    0.468100D+00
   0   288    0.564489D-40    0.174140D-39    0.132528D-36    0.468100D+00
   0   289    0.276138D-40    0.860529D-40    0.782869D-37    0.468100D+00
   0   290    0.133882D-40    0.418866D-40    0.334449D-37    0.468100D+00
   0   291    0.661319D-41    0.206066D-40    0.157758D-37    0.468100D+00
   0   292    0.326358D-41    0.100972D-40    0.943018D-38    0.468100D+00
   0   293    0.158926D-41    0.498904D-41    0.285332D-38    0.468100D+00
   0   294    0.783502D-42    0.243338D-41    0.113407D-38    0.468100D+00
   0   295    0.389557D-42    0.119674D-41    0.589095D-39    0.468100D+00
   0   296    0.187727D-42    0.587421D-42    0.400542D-39    0.468100D+00
   0   297    0.929150D-43    0.288615D-42    0.249731D-39    0.468100D+00
   0   298    0.446905D-43    0.140683D-42    0.125922D-39    0.468100D+00
   0   299    0.220442D-43    0.690285D-43    0.472014D-40    0.468100D+00
   0   300    0.109109D-43    0.339219D-43    0.157274D-40    0.468100D+00
   0   301    0.528092D-44    0.164876D-43    0.145678D-40    0.468100D+00
   0   302    0.261869D-44    0.809867D-44    0.356941D-41    0.468100D+00
   0   303    0.126726D-44    0.396311D-44    0.220002D-41    0.468100D+00
   0   304    0.620068D-45    0.194647D-44    0.132836D-41    0.468100D+00
   0   305    0.304551D-45    0.945116D-45    0.907323D-42    0.468100D+00
   0   306    0.149124D-45    0.464103D-45    0.233892D-42    0.468100D+00
   0   307    0.738741D-46    0.227614D-45    0.212139D-42    0.468100D+00
   0   308    0.359791D-46    0.111202D-45    0.107418D-42    0.468100D+00
   0   309    0.176103D-46    0.545964D-46    0.444515D-43    0.468100D+00
   0   310    0.856915D-47    0.268514D-46    0.244973D-43    0.468100D+00
   0   311    0.428664D-47    0.131055D-46    0.664943D-44    0.468100D+00
   0   312    0.207298D-47    0.637030D-47    0.327278D-44    0.468100D+00
   0   313    0.100962D-47    0.311365D-47    0.157375D-44    0.468100D+00
   0   314    0.486588D-48    0.150637D-47    0.872308D-45    0.468100D+00
   0   315    0.239067D-48    0.736427D-48    0.455762D-45    0.468100D+00
   0   316    0.118477D-48    0.361947D-48    0.335352D-45    0.468100D+00
   0   317    0.572314D-49    0.176924D-48    0.978027D-46    0.468100D+00
   0   318    0.276997D-49    0.863161D-49    0.706224D-46    0.468100D+00
   0   319    0.135020D-49    0.422499D-49    0.329946D-46    0.468100D+00
   0   320    0.659563D-50    0.204022D-49    0.164539D-46    0.468100D+00
   0   321    0.316913D-50    0.987912D-50    0.799622D-47    0.468100D+00
   0   322    0.154450D-50    0.483068D-50    0.482740D-47    0.468100D+00
   0   323    0.768414D-51    0.235685D-50    0.147395D-47    0.468100D+00
   0   324    0.369216D-51    0.114262D-50    0.118330D-47    0.468100D+00
   0   325    0.180817D-51    0.556453D-51    0.303910D-48    0.468100D+00
   0   326    0.884882D-52    0.271451D-51    0.256596D-48    0.468100D+00
   0   327    0.432677D-52    0.132455D-51    0.118703D-48    0.468100D+00
   0   328    0.208819D-52    0.642061D-52    0.446556D-49    0.468100D+00
   0   329    0.999075D-53    0.312373D-52    0.265325D-49    0.468100D+00
   0   330    0.487166D-53    0.151692D-52    0.102487D-49    0.468100D+00
   0   331    0.238555D-53    0.733650D-53    0.510795D-50    0.468100D+00
   0   332    0.114084D-53    0.356712D-53    0.318850D-50    0.468100D+00
   0   333    0.563326D-54    0.172892D-53    0.780648D-51    0.468100D+00
   0   334    0.271026D-54    0.837059D-54    0.747254D-51    0.468100D+00
   0   335    0.131677D-54    0.406529D-54    0.351693D-51    0.468100D+00
   0   336    0.637431D-55    0.196448D-54    0.203637D-51    0.468100D+00
   0   337    0.307184D-55    0.951233D-55    0.883477D-52    0.468100D+00
   0   338    0.148164D-55    0.457133D-55    0.259548D-52    0.468100D+00
   0   339    0.715264D-56    0.220499D-55    0.116554D-52    0.468100D+00
   0   340    0.342150D-56    0.106341D-55    0.972286D-53    0.468100D+00
   0   341    0.165029D-56    0.508456D-56    0.331765D-53    0.468100D+00
   0   342    0.793225D-57    0.245532D-56    0.190090D-53    0.468100D+00
   0   343    0.385605D-57    0.118992D-56    0.669187D-54    0.468100D+00
   0   344    0.186578D-57    0.572790D-57    0.332106D-54    0.468100D+00
   0   345    0.885058D-58    0.274849D-57    0.243099D-54    0.468100D+00
   0   346    0.425907D-58    0.131566D-57    0.814172D-55    0.468100D+00
   0   347    0.204409D-58    0.630304D-58    0.434964D-55    0.468100D+00
   0   348    0.964708D-59    0.302091D-58    0.336170D-55    0.468100D+00
   0   349    0.462272D-59    0.143756D-58    0.113677D-55    0.468100D+00
   0   350    0.220721D-59    0.685587D-59    0.483462D-56    0.468100D+00
   0   351    0.104092D-59    0.325973D-59    0.200237D-56    0.468100D+00
   0   352    0.494513D-60    0.154406D-59    0.139611D-56    0.468100D+00
   0   353    0.235923D-60    0.733690D-60    0.491587D-57    0.468100D+00
   0   354    0.112805D-60    0.349121D-60    0.196622D-57    0.468100D+00
   0   355    0.545088D-61    0.167174D-60    0.147664D-57    0.468100D+00
   0   356    0.256841D-61    0.790192D-61    0.896213D-58    0.468100D+00
   0   357    0.122652D-61    0.377689D-61    0.241743D-58    0.468100D+00
   0   358    0.579203D-62    0.178823D-61    0.125437D-58    0.468100D+00
   0   359    0.275879D-62    0.843701D-62    0.808942D-59    0.468100D+00
   0   360    0.130461D-62    0.400825D-62    0.433404D-59    0.468100D+00
   0   361    0.619538D-63    0.189469D-62    0.121872D-59    0.468100D+00
   0   362    0.288184D-63    0.889224D-63    0.103093D-59    0.468100D+00
   0   363    0.136420D-63    0.416203D-63    0.318224D-60    0.468100D+00
   0   364    0.632997D-64    0.195281D-63    0.175235D-60    0.468100D+00
   0   365    0.298279D-64    0.913396D-64    0.948379D-61    0.468100D+00
   0   366    0.139000D-64    0.428837D-64    0.491990D-61    0.468100D+00
   0   367    0.647954D-65    0.201066D-64    0.161572D-61    0.468100D+00
   0   368    0.304280D-65    0.942947D-65    0.849931D-62    0.468100D+00
   0   369    0.143747D-65    0.440392D-65    0.305382D-62    0.468100D+00
   0   370    0.676106D-66    0.206445D-65    0.173913D-62    0.468100D+00
   0   371    0.312254D-66    0.950398D-66    0.895443D-63    0.468100D+00
   0   372    0.143798D-66    0.441357D-66    0.308769D-63    0.468100D+00
   0   373    0.670085D-67    0.204665D-66    0.156430D-63    0.468100D+00
   0   374    0.309008D-67    0.948272D-67    0.774312D-64    0.468100D+00
   0   375    0.143093D-67    0.437666D-67    0.466117D-64    0.468100D+00
   0   376    0.666832D-68    0.202911D-67    0.183659D-64    0.468100D+00
   0   377    0.311200D-68    0.945423D-68    0.754812D-65    0.468100D+00
   0   378    0.141484D-68    0.432509D-68    0.373909D-65    0.468100D+00
   0   379    0.656423D-69    0.199063D-68    0.133280D-65    0.468100D+00
   0   380    0.301801D-69    0.915357D-69    0.694351D-66    0.468100D+00
   0   381    0.139847D-69    0.424139D-69    0.399529D-66    0.468100D+00
   0   382    0.636667D-70    0.193511D-69    0.180444D-66    0.468100D+00
   0   383    0.288519D-70    0.879535D-70    0.995825D-67    0.468100D+00
   0   384    0.132824D-70    0.402284D-70    0.287166D-67    0.468100D+00
   0   385    0.604181D-71    0.183807D-70    0.124473D-67    0.468100D+00
   0   386    0.274139D-71    0.839573D-71    0.822114D-68    0.468100D+00
   0   387    0.124663D-71    0.378353D-71    0.404943D-68    0.468100D+00
   0   388    0.565314D-72    0.172839D-71    0.204076D-68    0.468100D+00
   0   389    0.261273D-72    0.785269D-72    0.776323D-69    0.468100D+00
   0   390    0.118551D-72    0.360691D-72    0.364767D-69    0.468100D+00
   0   391    0.533328D-73    0.163058D-72    0.132615D-69    0.468100D+00
   0   392    0.241548D-73    0.731778D-73    0.836183D-70    0.468100D+00
   0   393    0.107619D-73    0.331312D-73    0.342563D-70    0.468100D+00
   0   394    0.493593D-74    0.149858D-73    0.119499D-70    0.468100D+00
   0   395    0.222910D-74    0.674216D-74    0.631495D-71    0.468100D+00
   0   396    0.101457D-74    0.306667D-74    0.242688D-71    0.468100D+00
   0   397    0.456733D-75    0.138056D-74    0.158818D-71    0.468100D+00