variables =  "IG"  "JG"  "PHI"  "Temp."  "Latent_heat"  "mm"
ZONE  I=  401  J=  101
   0     0    0.100000D+01    0.888019D+00   -0.455397D-05    0.201656D+00
   0     1    0.100000D+01    0.888019D+00   -0.937338D-05    0.201656D+00
   0     2    0.100000D+01    0.889119D+00   -0.224283D-04    0.199358D+00
   0     3    0.100000D+01    0.891302D+00   -0.482886D-04    0.194728D+00
   0     4    0.100000D+01    0.894533D+00    0.611479D-04    0.187697D+00
   0     5    0.999999D+00    0.898762D+00    0.912056D-04    0.178176D+00
   0     6    0.999998D+00    0.903921D+00   -0.129342D-02    0.166060D+00
   0     7    0.999994D+00    0.909929D+00    0.837012D-03    0.151256D+00
   0     8    0.999983D+00    0.916690D+00   -0.461949D-02    0.133710D+00
   0     9    0.999954D+00    0.924100D+00    0.225009D-01    0.113449D+00
   0    10    0.999874D+00    0.932039D+00    0.176574D-01    0.906309D-01
   0    11    0.999677D+00    0.940385D+00   -0.240041D+00    0.655685D-01
   0    12    0.999172D+00    0.949008D+00   -0.922889D-01    0.387889D-01
   0    13    0.997965D+00    0.957774D+00    0.227242D+00    0.109929D-01
   0    14    0.995034D+00    0.966526D+00    0.702726D+00   -0.168821D-01
   0    15    0.988464D+00    0.975134D+00    0.184536D+01   -0.441060D-01
   0    16    0.974005D+00    0.983128D+00   -0.245501D+02   -0.688937D-01
   0    17    0.942992D+00    0.990367D+00   -0.615851D+00   -0.904349D-01
   0    18    0.882591D+00    0.994156D+00   -0.523267D+02   -0.103969D+00
   0    19    0.777779D+00    0.996218D+00   -0.411244D+02   -0.106909D+00
   0    20    0.636653D+00    0.992738D+00   -0.110132D+03   -0.101792D+00
   0    21    0.499739D+00    0.989304D+00    0.912464D+02   -0.821745D-01
   0    22    0.418891D+00    0.984457D+00    0.834201D+02   -0.675648D-01
   0    23    0.412611D+00    0.979855D+00    0.219816D+02   -0.527279D-01
   0    24    0.470088D+00    0.978786D+00   -0.147465D+03   -0.592155D-01
   0    25    0.558860D+00    0.984689D+00    0.108227D+03   -0.781968D-01
   0    26    0.645214D+00    0.988181D+00    0.206302D+03   -0.863502D-01
   0    27    0.705367D+00    0.997914D+00   -0.248066D+02   -0.112800D+00
   0    28    0.724986D+00    0.100702D+01   -0.766495D+02   -0.139377D+00
   0    29    0.713168D+00    0.100987D+01    0.134680D+03   -0.147203D+00
   0    30    0.680819D+00    0.100927D+01    0.118069D+03   -0.142294D+00
   0    31    0.635909D+00    0.100930D+01    0.126000D+03   -0.138770D+00
   0    32    0.596861D+00    0.999872D+00   -0.820666D+02   -0.115405D+00
   0    33    0.575687D+00    0.996140D+00    0.418654D+02   -0.108968D+00
   0    34    0.575127D+00    0.994074D+00   -0.931036D+02   -0.100297D+00
   0    35    0.583028D+00    0.989161D+00   -0.149425D+03   -0.893910D-01
   0    36    0.597972D+00    0.987658D+00   -0.173629D+02   -0.809382D-01
   0    37    0.610427D+00    0.989341D+00    0.192752D+03   -0.840908D-01
   0    38    0.615250D+00    0.992554D+00    0.193239D+03   -0.103011D+00
   0    39    0.615082D+00    0.995296D+00   -0.416115D+02   -0.104110D+00
   0    40    0.608713D+00    0.994348D+00    0.388743D+02   -0.989513D-01
   0    41    0.602993D+00    0.990383D+00   -0.137735D+03   -0.919068D-01
   0    42    0.594914D+00    0.990253D+00    0.285787D+02   -0.844109D-01
   0    43    0.589153D+00    0.990119D+00   -0.133767D+03   -0.879315D-01
   0    44    0.584370D+00    0.986363D+00    0.110272D+03   -0.804918D-01
   0    45    0.580197D+00    0.986939D+00    0.150455D+03   -0.868045D-01
   0    46    0.578378D+00    0.990404D+00   -0.104886D+03   -0.940427D-01
   0    47    0.575623D+00    0.987767D+00   -0.899620D+02   -0.803448D-01
   0    48    0.573463D+00    0.986985D+00    0.102172D+03   -0.796565D-01
   0    49    0.569571D+00    0.986223D+00    0.146169D+03   -0.757910D-01
   0    50    0.571645D+00    0.987685D+00    0.838346D+02   -0.789613D-01
   0    51    0.574389D+00    0.985121D+00    0.279538D+02   -0.675099D-01
   0    52    0.569879D+00    0.983310D+00    0.937565D+02   -0.723218D-01
   0    53    0.573100D+00    0.985574D+00   -0.117080D+03   -0.740711D-01
   0    54    0.575293D+00    0.986316D+00   -0.154741D+03   -0.764430D-01
   0    55    0.577516D+00    0.986764D+00   -0.338517D+02   -0.824416D-01
   0    56    0.578466D+00    0.985169D+00   -0.148461D+03   -0.732737D-01
   0    57    0.582263D+00    0.989684D+00    0.580117D+02   -0.850207D-01
   0    58    0.579257D+00    0.987782D+00    0.238947D+03   -0.829603D-01
   0    59    0.580603D+00    0.986256D+00    0.182540D+03   -0.746420D-01
   0    60    0.582156D+00    0.984857D+00    0.462273D+02   -0.737097D-01
   0    61    0.581417D+00    0.985715D+00    0.656777D+02   -0.819912D-01
   0    62    0.581236D+00    0.988974D+00    0.814787D+02   -0.816154D-01
   0    63    0.584649D+00    0.984798D+00   -0.954610D+02   -0.783705D-01
   0    64    0.583371D+00    0.987949D+00   -0.162265D+01   -0.831697D-01
   0    65    0.578812D+00    0.986776D+00   -0.236426D+02   -0.800448D-01
   0    66    0.577805D+00    0.989910D+00   -0.430714D+02   -0.848886D-01
   0    67    0.578129D+00    0.985414D+00   -0.126017D+03   -0.789428D-01
   0    68    0.575003D+00    0.988780D+00    0.161397D+03   -0.812461D-01
   0    69    0.576252D+00    0.990915D+00   -0.152144D+03   -0.885941D-01
   0    70    0.575674D+00    0.992086D+00    0.101673D+03   -0.933065D-01
   0    71    0.574229D+00    0.987746D+00    0.133996D+03   -0.897328D-01
   0    72    0.576356D+00    0.982721D+00    0.285368D+02   -0.714773D-01
   0    73    0.575285D+00    0.986926D+00   -0.120361D+03   -0.767051D-01
   0    74    0.577374D+00    0.983240D+00   -0.800709D+02   -0.729491D-01
   0    75    0.574747D+00    0.988901D+00    0.158041D+03   -0.845262D-01
   0    76    0.573407D+00    0.982373D+00    0.119254D+03   -0.679411D-01
   0    77    0.573438D+00    0.982339D+00   -0.960778D+02   -0.668599D-01
   0    78    0.573541D+00    0.981454D+00   -0.807917D+02   -0.621041D-01
   0    79    0.571997D+00    0.983618D+00   -0.105254D+02   -0.720750D-01
   0    80    0.572358D+00    0.981780D+00    0.931515D+01   -0.617189D-01
   0    81    0.569788D+00    0.984198D+00    0.585040D+02   -0.648976D-01
   0    82    0.573238D+00    0.986980D+00    0.738027D+02   -0.838138D-01
   0    83    0.569275D+00    0.983327D+00   -0.147056D+03   -0.748576D-01
   0    84    0.572085D+00    0.984501D+00   -0.310702D+02   -0.697679D-01
   0    85    0.570762D+00    0.982515D+00    0.987248D+02   -0.631121D-01
   0    86    0.569795D+00    0.986142D+00    0.843106D+02   -0.717882D-01
   0    87    0.566342D+00    0.984680D+00    0.156150D+03   -0.713858D-01
   0    88    0.567544D+00    0.982623D+00    0.124704D+03   -0.715018D-01
   0    89    0.568026D+00    0.985966D+00    0.145165D+03   -0.814145D-01
   0    90    0.565868D+00    0.984036D+00   -0.108257D+03   -0.756361D-01
   0    91    0.566969D+00    0.984198D+00   -0.548067D+02   -0.699871D-01
   0    92    0.567891D+00    0.981577D+00    0.183474D+00   -0.660563D-01
   0    93    0.566201D+00    0.981645D+00   -0.185385D+02   -0.694021D-01
   0    94    0.570893D+00    0.982620D+00    0.117503D+03   -0.647960D-01
   0    95    0.573593D+00    0.984804D+00   -0.243853D+03   -0.723810D-01
   0    96    0.571194D+00    0.987868D+00   -0.107618D+03   -0.814788D-01
   0    97    0.572810D+00    0.982462D+00   -0.125880D+03   -0.695145D-01
   0    98    0.575254D+00    0.986338D+00    0.201140D+03   -0.718132D-01
   0    99    0.578171D+00    0.984602D+00    0.148983D+03   -0.679701D-01
   0   100    0.579255D+00    0.977888D+00   -0.191926D+03   -0.529045D-01
   0   101    0.575797D+00    0.985385D+00    0.285816D+02   -0.715473D-01
   0   102    0.572493D+00    0.980605D+00   -0.127138D+03   -0.623047D-01
   0   103    0.573584D+00    0.987409D+00    0.169074D+03   -0.823833D-01
   0   104    0.577376D+00    0.984331D+00   -0.160863D+02   -0.717410D-01
   0   105    0.574322D+00    0.983213D+00    0.195373D+02   -0.747493D-01
   0   106    0.577334D+00    0.984390D+00    0.648643D+02   -0.703400D-01
   0   107    0.575919D+00    0.986229D+00   -0.296231D+02   -0.830674D-01
   0   108    0.572940D+00    0.985627D+00    0.125579D+03   -0.777790D-01
   0   109    0.575066D+00    0.984715D+00    0.152876D+03   -0.749183D-01
   0   110    0.576059D+00    0.982552D+00    0.732905D+02   -0.730092D-01
   0   111    0.580460D+00    0.985847D+00   -0.337430D+02   -0.751253D-01
   0   112    0.577104D+00    0.987469D+00   -0.107878D+03   -0.858448D-01
   0   113    0.577930D+00    0.985694D+00   -0.820247D+01   -0.702546D-01
   0   114    0.581185D+00    0.983180D+00    0.149112D+02   -0.745198D-01
   0   115    0.581306D+00    0.982037D+00    0.868064D+02   -0.647976D-01
   0   116    0.582258D+00    0.988282D+00   -0.171462D+03   -0.815588D-01
   0   117    0.582133D+00    0.986426D+00    0.117891D+03   -0.781672D-01
   0   118    0.577973D+00    0.984642D+00   -0.164800D+03   -0.796798D-01
   0   119    0.579405D+00    0.983730D+00    0.698707D+01   -0.747017D-01
   0   120    0.581020D+00    0.985920D+00   -0.330819D+02   -0.750981D-01
   0   121    0.580850D+00    0.986149D+00   -0.187899D+03   -0.839851D-01
   0   122    0.579969D+00    0.984017D+00    0.104590D+03   -0.748636D-01
   0   123    0.583866D+00    0.983238D+00   -0.299186D+02   -0.741845D-01
   0   124    0.583388D+00    0.985775D+00   -0.104582D+03   -0.767927D-01
   0   125    0.584101D+00    0.984518D+00    0.180433D+03   -0.687490D-01
   0   126    0.584266D+00    0.986150D+00   -0.403213D+02   -0.796197D-01
   0   127    0.581967D+00    0.987004D+00    0.722084D+02   -0.829557D-01
   0   128    0.578088D+00    0.989266D+00    0.572838D+02   -0.835126D-01
   0   129    0.577422D+00    0.986963D+00    0.385372D+02   -0.859699D-01
   0   130    0.577454D+00    0.984787D+00   -0.136592D+03   -0.780987D-01
   0   131    0.576907D+00    0.986330D+00   -0.154476D+03   -0.840887D-01
   0   132    0.575907D+00    0.987585D+00    0.197868D+02   -0.884521D-01
   0   133    0.577510D+00    0.985562D+00   -0.320120D+02   -0.700066D-01
   0   134    0.578976D+00    0.984264D+00   -0.194792D+03   -0.747539D-01
   0   135    0.577119D+00    0.983720D+00    0.100420D+03   -0.760150D-01
   0   136    0.578307D+00    0.985880D+00    0.706853D+02   -0.741852D-01
   0   137    0.575152D+00    0.983257D+00    0.209132D+03   -0.689874D-01
   0   138    0.572899D+00    0.982833D+00    0.736072D+02   -0.641106D-01
   0   139    0.576527D+00    0.987482D+00    0.549505D+02   -0.799161D-01
   0   140    0.572374D+00    0.984227D+00    0.547944D+02   -0.748871D-01
   0   141    0.574321D+00    0.985964D+00    0.154917D+03   -0.828186D-01
   0   142    0.574110D+00    0.988082D+00   -0.138969D+03   -0.783006D-01
   0   143    0.576956D+00    0.987189D+00   -0.181301D+03   -0.848595D-01
   0   144    0.577584D+00    0.986477D+00    0.134601D+03   -0.850997D-01
   0   145    0.575187D+00    0.980251D+00   -0.961199D+02   -0.604431D-01
   0   146    0.572990D+00    0.982851D+00   -0.192126D+03   -0.652496D-01
   0   147    0.571877D+00    0.983138D+00    0.159609D+03   -0.709892D-01
   0   148    0.572941D+00    0.985185D+00   -0.706954D+01   -0.750471D-01
   0   149    0.573632D+00    0.984152D+00   -0.843525D+02   -0.777911D-01
   0   150    0.571520D+00    0.984512D+00   -0.103054D+03   -0.767456D-01
   0   151    0.572417D+00    0.986172D+00   -0.119050D+03   -0.758293D-01
   0   152    0.572722D+00    0.982277D+00    0.140571D+03   -0.699203D-01
   0   153    0.572985D+00    0.985222D+00   -0.150642D+03   -0.737656D-01
   0   154    0.574373D+00    0.984464D+00   -0.142433D+03   -0.768725D-01
   0   155    0.573742D+00    0.987199D+00    0.179546D+03   -0.766267D-01
   0   156    0.572540D+00    0.985210D+00   -0.185899D+03   -0.775292D-01
   0   157    0.570703D+00    0.981272D+00   -0.630985D+02   -0.655340D-01
   0   158    0.572619D+00    0.988599D+00   -0.124502D+03   -0.821815D-01
   0   159    0.573739D+00    0.987320D+00    0.922091D+02   -0.804655D-01
   0   160    0.575963D+00    0.988848D+00   -0.186729D+03   -0.807339D-01
   0   161    0.577051D+00    0.984560D+00    0.126375D+03   -0.763244D-01
   0   162    0.576872D+00    0.983447D+00   -0.532910D+02   -0.756459D-01
   0   163    0.573107D+00    0.982633D+00   -0.156948D+03   -0.701257D-01
   0   164    0.577973D+00    0.985505D+00   -0.253258D+03   -0.810690D-01
   0   165    0.575622D+00    0.987074D+00    0.128323D+03   -0.747043D-01
   0   166    0.579030D+00    0.984198D+00    0.109692D+03   -0.775347D-01
   0   167    0.573925D+00    0.982817D+00    0.122838D+03   -0.724942D-01
   0   168    0.573966D+00    0.982112D+00   -0.195446D+03   -0.710897D-01
   0   169    0.573403D+00    0.984692D+00    0.512791D+02   -0.697043D-01
   0   170    0.577043D+00    0.985391D+00    0.729692D+02   -0.686457D-01
   0   171    0.579194D+00    0.982352D+00   -0.120300D+03   -0.715536D-01
   0   172    0.576466D+00    0.985737D+00   -0.414398D+02   -0.796004D-01
   0   173    0.575986D+00    0.984900D+00   -0.308742D+02   -0.741202D-01
   0   174    0.575420D+00    0.986510D+00   -0.295418D+02   -0.752148D-01
   0   175    0.575861D+00    0.987255D+00   -0.805618D+02   -0.835303D-01
   0   176    0.575227D+00    0.984046D+00    0.130566D+03   -0.725538D-01
   0   177    0.575036D+00    0.986300D+00   -0.144988D+03   -0.738802D-01
   0   178    0.576722D+00    0.984348D+00    0.141174D+03   -0.739537D-01
   0   179    0.578903D+00    0.984542D+00   -0.970219D+02   -0.769985D-01
   0   180    0.577170D+00    0.980158D+00   -0.953278D+02   -0.623804D-01
   0   181    0.574157D+00    0.979205D+00    0.664973D+02   -0.610665D-01
   0   182    0.575926D+00    0.983633D+00    0.142619D+03   -0.778116D-01
   0   183    0.575210D+00    0.984960D+00    0.796598D+02   -0.700640D-01
   0   184    0.576420D+00    0.982565D+00   -0.198064D+03   -0.578288D-01
   0   185    0.573268D+00    0.985725D+00   -0.461600D+02   -0.774631D-01
   0   186    0.577961D+00    0.988108D+00    0.719762D+02   -0.830215D-01
   0   187    0.574960D+00    0.980976D+00   -0.110174D+03   -0.648510D-01
   0   188    0.575878D+00    0.984917D+00    0.477601D+01   -0.772657D-01
   0   189    0.575908D+00    0.986782D+00    0.597116D+02   -0.778755D-01
   0   190    0.578440D+00    0.986087D+00   -0.507008D+02   -0.812053D-01
   0   191    0.576147D+00    0.983950D+00    0.211798D+03   -0.778366D-01
   0   192    0.576108D+00    0.986772D+00   -0.149274D+03   -0.762617D-01
   0   193    0.578071D+00    0.987265D+00   -0.662422D+02   -0.828046D-01
   0   194    0.577434D+00    0.985304D+00    0.150183D+03   -0.670076D-01
   0   195    0.575983D+00    0.986714D+00   -0.461669D+02   -0.752039D-01
   0   196    0.575043D+00    0.989417D+00   -0.755633D+02   -0.854505D-01
   0   197    0.577098D+00    0.988741D+00   -0.616474D+02   -0.814297D-01
   0   198    0.576591D+00    0.985627D+00   -0.159054D+03   -0.749413D-01
   0   199    0.576384D+00    0.980751D+00   -0.885590D+01   -0.618001D-01
   0   200    0.576538D+00    0.984386D+00    0.189915D+03   -0.680057D-01
   0   201    0.577508D+00    0.985685D+00    0.487990D+01   -0.784690D-01
   0   202    0.574921D+00    0.983780D+00   -0.557468D+02   -0.639904D-01
   0   203    0.574385D+00    0.983020D+00   -0.139295D+03   -0.647322D-01
   0   204    0.577497D+00    0.987656D+00    0.266728D+01   -0.833881D-01
   0   205    0.572992D+00    0.986490D+00    0.195345D+02   -0.763698D-01
   0   206    0.575046D+00    0.985708D+00   -0.245378D+02   -0.768577D-01
   0   207    0.574955D+00    0.981307D+00   -0.534163D+02   -0.685912D-01
   0   208    0.574058D+00    0.979866D+00   -0.125554D+03   -0.598004D-01
   0   209    0.573076D+00    0.985106D+00   -0.139435D+03   -0.747150D-01
   0   210    0.569756D+00    0.976717D+00   -0.113737D+03   -0.538121D-01
   0   211    0.566837D+00    0.971463D+00   -0.184228D+03   -0.312570D-01
   0   212    0.547930D+00    0.954515D+00    0.105226D+03    0.202306D-01
   0   213    0.514284D+00    0.914037D+00   -0.794069D+02    0.140737D+00
   0   214    0.440113D+00    0.825131D+00    0.451817D+03    0.299961D+00
   0   215    0.331033D+00    0.671831D+00    0.172345D+03    0.396821D+00
   0   216    0.209747D+00    0.475767D+00    0.224251D+03    0.436851D+00
   0   217    0.118281D+00    0.297012D+00    0.308327D+03    0.453632D+00
   0   218    0.629114D-01    0.168056D+00    0.102368D+03    0.461239D+00
   0   219    0.317544D-01    0.902478D-01    0.687939D+02    0.464743D+00
   0   220    0.157612D-01    0.466860D-01    0.438135D+02    0.466445D+00
   0   221    0.783251D-02    0.235837D-01    0.187380D+02    0.467285D+00
   0   222    0.385119D-02    0.117799D-01    0.904431D+01    0.467698D+00
   0   223    0.188633D-02    0.584616D-02    0.598358D+01    0.467901D+00
   0   224    0.927350D-03    0.289646D-02    0.207051D+01    0.468002D+00
   0   225    0.459342D-03    0.142994D-02    0.126159D+01    0.468051D+00
   0   226    0.223807D-03    0.699786D-03    0.595341D+00    0.468076D+00
   0   227    0.111100D-03    0.345283D-03    0.309353D+00    0.468088D+00
   0   228    0.548399D-04    0.169272D-03    0.976358D-01    0.468094D+00
   0   229    0.268798D-04    0.831661D-04    0.837050D-01    0.468097D+00
   0   230    0.130630D-04    0.407857D-04    0.326696D-01    0.468098D+00
   0   231    0.644904D-05    0.199463D-04    0.195857D-01    0.468099D+00
   0   232    0.317393D-05    0.978494D-05    0.607605D-02    0.468099D+00
   0   233    0.154581D-05    0.478538D-05    0.343020D-02    0.468099D+00
   0   234    0.745908D-06    0.234886D-05    0.163852D-02    0.468100D+00
   0   235    0.367070D-06    0.113661D-05    0.692918D-03    0.468100D+00
   0   236    0.180865D-06    0.553667D-06    0.375687D-03    0.468100D+00
   0   237    0.876314D-07    0.273062D-06    0.214071D-03    0.468100D+00
   0   238    0.428625D-07    0.133658D-06    0.119524D-03    0.468100D+00
   0   239    0.212003D-07    0.656219D-07    0.316680D-04    0.468100D+00
   0   240    0.105529D-07    0.326753D-07    0.163980D-04    0.468100D+00
   0   241    0.514325D-08    0.161002D-07    0.124227D-04    0.468100D+00
   0   242    0.251140D-08    0.784569D-08    0.752740D-05    0.468100D+00
   0   243    0.124225D-08    0.384687D-08    0.263197D-05    0.468100D+00
   0   244    0.613267D-09    0.188115D-08    0.136620D-05    0.468100D+00
   0   245    0.298645D-09    0.926435D-09    0.547323D-06    0.468100D+00
   0   246    0.145093D-09    0.456429D-09    0.494444D-06    0.468100D+00
   0   247    0.718791D-10    0.222697D-09    0.154341D-06    0.468100D+00
   0   248    0.352837D-10    0.109387D-09    0.576975D-07    0.468100D+00
   0   249    0.174630D-10    0.533120D-10    0.266179D-07    0.468100D+00
   0   250    0.856084D-11    0.262153D-10    0.126419D-07    0.468100D+00
   0   251    0.413941D-11    0.129658D-10    0.117627D-07    0.468100D+00
   0   252    0.202326D-11    0.634398D-11    0.493699D-08    0.468100D+00
   0   253    0.989731D-12    0.306498D-11    0.175561D-08    0.468100D+00
   0   254    0.478747D-12    0.149470D-11    0.122975D-08    0.468100D+00
   0   255    0.237115D-12    0.728794D-12    0.602655D-09    0.468100D+00
   0   256    0.115846D-12    0.359626D-12    0.372212D-09    0.468100D+00
   0   257    0.563262D-13    0.176867D-12    0.163519D-09    0.468100D+00
   0   258    0.274637D-13    0.863796D-13    0.929099D-10    0.468100D+00
   0   259    0.138793D-13    0.424837D-13    0.325790D-10    0.468100D+00
   0   260    0.676476D-14    0.209252D-13    0.202169D-10    0.468100D+00
   0   261    0.324585D-14    0.101791D-13    0.593756D-11    0.468100D+00
   0   262    0.158105D-14    0.496296D-14    0.327937D-11    0.468100D+00
   0   263    0.787928D-15    0.244104D-14    0.179372D-11    0.468100D+00
   0   264    0.388635D-15    0.120234D-14    0.560369D-12    0.468100D+00
   0   265    0.189888D-15    0.590963D-15    0.399434D-12    0.468100D+00
   0   266    0.920962D-16    0.288145D-15    0.270290D-12    0.468100D+00
   0   267    0.456758D-16    0.141173D-15    0.911911D-13    0.468100D+00
   0   268    0.222194D-16    0.697087D-16    0.389781D-13    0.468100D+00
   0   269    0.110140D-16    0.341588D-16    0.277000D-13    0.468100D+00
   0   270    0.535098D-17    0.166770D-16    0.868537D-14    0.468100D+00
   0   271    0.263886D-17    0.817140D-17    0.562853D-14    0.468100D+00
   0   272    0.130020D-17    0.400300D-17    0.347353D-14    0.468100D+00
   0   273    0.633771D-18    0.196007D-17    0.114752D-14    0.468100D+00
   0   274    0.311216D-18    0.964773D-18    0.530636D-15    0.468100D+00
   0   275    0.151823D-18    0.471690D-18    0.439421D-15    0.468100D+00
   0   276    0.746803D-19    0.230422D-18    0.179199D-15    0.468100D+00
   0   277    0.367082D-19    0.113856D-18    0.101537D-15    0.468100D+00
   0   278    0.180940D-19    0.558129D-19    0.529497D-16    0.468100D+00
   0   279    0.875967D-20    0.272935D-19    0.276763D-16    0.468100D+00
   0   280    0.432499D-20    0.133246D-19    0.118166D-16    0.468100D+00
   0   281    0.208848D-20    0.653753D-20    0.566700D-17    0.468100D+00
   0   282    0.102646D-20    0.317553D-20    0.225838D-17    0.468100D+00
   0   283    0.500688D-21    0.155376D-20    0.129961D-17    0.468100D+00
   0   284    0.241159D-21    0.756814D-21    0.799436D-18    0.468100D+00
   0   285    0.117825D-21    0.369526D-21    0.265629D-18    0.468100D+00
   0   286    0.586039D-22    0.181116D-21    0.164245D-18    0.468100D+00
   0   287    0.288683D-22    0.893869D-22    0.671398D-19    0.468100D+00
   0   288    0.143573D-22    0.437819D-22    0.177475D-19    0.468100D+00
   0   289    0.699124D-23    0.214941D-22    0.205268D-19    0.468100D+00
   0   290    0.339912D-23    0.105185D-22    0.669798D-20    0.468100D+00
   0   291    0.166473D-23    0.515062D-23    0.387659D-20    0.468100D+00
   0   292    0.811097D-24    0.252083D-23    0.131082D-20    0.468100D+00
   0   293    0.396886D-24    0.123862D-23    0.713052D-21    0.468100D+00
   0   294    0.192997D-24    0.605078D-24    0.564270D-21    0.468100D+00
   0   295    0.943119D-25    0.297443D-24    0.199699D-21    0.468100D+00
   0   296    0.467010D-25    0.146127D-24    0.686031D-22    0.468100D+00
   0   297    0.229234D-25    0.713798D-25    0.655519D-22    0.468100D+00
   0   298    0.112450D-25    0.350228D-25    0.298893D-22    0.468100D+00
   0   299    0.542983D-26    0.170450D-25    0.921890D-23    0.468100D+00
   0   300    0.265658D-26    0.833223D-26    0.493389D-23    0.468100D+00
   0   301    0.131225D-26    0.406156D-26    0.291725D-23    0.468100D+00
   0   302    0.645392D-27    0.200076D-26    0.169111D-23    0.468100D+00
   0   303    0.317060D-27    0.981534D-27    0.912865D-24    0.468100D+00
   0   304    0.155273D-27    0.482232D-27    0.405400D-24    0.468100D+00
   0   305    0.755107D-28    0.237566D-27    0.159421D-24    0.468100D+00
   0   306    0.372710D-28    0.114971D-27    0.702386D-25    0.468100D+00
   0   307    0.182689D-28    0.563360D-28    0.262399D-25    0.468100D+00
   0   308    0.895501D-29    0.277882D-28    0.211899D-25    0.468100D+00
   0   309    0.440381D-29    0.136501D-28    0.984937D-26    0.468100D+00
   0   310    0.216045D-29    0.664162D-29    0.579095D-26    0.468100D+00
   0   311    0.106203D-29    0.325552D-29    0.149801D-26    0.468100D+00
   0   312    0.519989D-30    0.159400D-29    0.698768D-27    0.468100D+00
   0   313    0.251034D-30    0.782140D-30    0.646722D-27    0.468100D+00
   0   314    0.123968D-30    0.381786D-30    0.198397D-27    0.468100D+00
   0   315    0.606955D-31    0.187078D-30    0.110656D-27    0.468100D+00
   0   316    0.294975D-31    0.921432D-31    0.689715D-28    0.468100D+00
   0   317    0.146059D-31    0.450797D-31    0.306889D-28    0.468100D+00
   0   318    0.708777D-32    0.222033D-31    0.161797D-28    0.468100D+00
   0   319    0.345744D-32    0.108756D-31    0.925885D-29    0.468100D+00
   0   320    0.170047D-32    0.529896D-32    0.385278D-29    0.468100D+00
   0   321    0.821192D-33    0.257095D-32    0.134583D-29    0.468100D+00
   0   322    0.406478D-33    0.126838D-32    0.102408D-29    0.468100D+00
   0   323    0.197889D-33    0.620281D-33    0.512713D-30    0.468100D+00
   0   324    0.970757D-34    0.303323D-33    0.294456D-30    0.468100D+00
   0   325    0.481955D-34    0.148979D-33    0.950779D-31    0.468100D+00
   0   326    0.234717D-34    0.735679D-34    0.621215D-31    0.468100D+00
   0   327    0.115442D-34    0.361060D-34    0.241677D-31    0.468100D+00
   0   328    0.567189D-35    0.177007D-34    0.884748D-32    0.468100D+00
   0   329    0.278152D-35    0.864539D-35    0.553417D-32    0.468100D+00
   0   330    0.137006D-35    0.424799D-35    0.311017D-32    0.468100D+00
   0   331    0.671617D-36    0.207317D-35    0.171666D-32    0.468100D+00
   0   332    0.327901D-36    0.101061D-35    0.917027D-33    0.468100D+00
   0   333    0.157800D-36    0.494657D-36    0.497522D-33    0.468100D+00
   0   334    0.786951D-37    0.245405D-36    0.189227D-33    0.468100D+00
   0   335    0.383420D-37    0.120141D-36    0.834355D-34    0.468100D+00
   0   336    0.190087D-37    0.589908D-37    0.369644D-34    0.468100D+00
   0   337    0.930369D-38    0.290924D-37    0.249568D-34    0.468100D+00
   0   338    0.455461D-38    0.141877D-37    0.122011D-34    0.468100D+00
   0   339    0.223156D-38    0.695227D-38    0.355749D-35    0.468100D+00
   0   340    0.109921D-38    0.341609D-38    0.292491D-35    0.468100D+00
   0   341    0.540797D-39    0.167471D-38    0.971042D-36    0.468100D+00
   0   342    0.261268D-39    0.823148D-39    0.555084D-36    0.468100D+00
   0   343    0.128243D-39    0.403812D-39    0.315291D-36    0.468100D+00
   0   344    0.630979D-40    0.196512D-39    0.120339D-36    0.468100D+00
   0   345    0.310672D-40    0.959362D-40    0.603077D-37    0.468100D+00
   0   346    0.152565D-40    0.470230D-40    0.437103D-37    0.468100D+00
   0   347    0.736963D-41    0.230072D-40    0.132332D-37    0.468100D+00
   0   348    0.366671D-41    0.113172D-40    0.527891D-38    0.468100D+00
   0   349    0.179220D-41    0.551299D-41    0.440500D-38    0.468100D+00
   0   350    0.876883D-42    0.270549D-41    0.170681D-38    0.468100D+00
   0   351    0.426325D-42    0.132369D-41    0.860661D-39    0.468100D+00
   0   352    0.208360D-42    0.649120D-42    0.578589D-39    0.468100D+00
   0   353    0.102765D-42    0.317038D-42    0.234264D-39    0.468100D+00
   0   354    0.499614D-43    0.156438D-42    0.129957D-39    0.468100D+00
   0   355    0.245868D-43    0.770586D-43    0.400713D-40    0.468100D+00
   0   356    0.119889D-43    0.374263D-43    0.282746D-40    0.468100D+00
   0   357    0.594115D-44    0.184476D-43    0.109815D-40    0.468100D+00
   0   358    0.293724D-44    0.905168D-44    0.806369D-41    0.468100D+00
   0   359    0.140964D-44    0.442282D-44    0.265051D-41    0.468100D+00
   0   360    0.691152D-45    0.217199D-44    0.136192D-41    0.468100D+00
   0   361    0.339210D-45    0.106523D-44    0.520326D-42    0.468100D+00
   0   362    0.166815D-45    0.522459D-45    0.337615D-42    0.468100D+00
   0   363    0.804401D-46    0.253821D-45    0.201196D-42    0.468100D+00
   0   364    0.396581D-46    0.124475D-45    0.109784D-42    0.468100D+00
   0   365    0.194738D-46    0.610425D-46    0.420370D-43    0.468100D+00
   0   366    0.970021D-47    0.299416D-46    0.262008D-43    0.468100D+00
   0   367    0.474540D-47    0.147319D-46    0.143033D-43    0.468100D+00
   0   368    0.235807D-47    0.727807D-47    0.424180D-44    0.468100D+00
   0   369    0.113298D-47    0.355907D-47    0.312415D-44    0.468100D+00
   0   370    0.560514D-48    0.173281D-47    0.100638D-44    0.468100D+00
   0   371    0.268579D-48    0.850306D-48    0.699098D-45    0.468100D+00
   0   372    0.133790D-48    0.417108D-48    0.362079D-45    0.468100D+00
   0   373    0.663168D-49    0.205222D-48    0.122996D-45    0.468100D+00
   0   374    0.328794D-49    0.101232D-48    0.850286D-46    0.468100D+00
   0   375    0.159055D-49    0.495748D-49    0.441863D-46    0.468100D+00
   0   376    0.781912D-50    0.242550D-49    0.158084D-46    0.468100D+00
   0   377    0.386542D-50    0.119266D-49    0.106795D-46    0.468100D+00
   0   378    0.185969D-50    0.584056D-50    0.346027D-47    0.468100D+00
   0   379    0.910431D-51    0.284969D-50    0.221836D-47    0.468100D+00
   0   380    0.451778D-51    0.140045D-50    0.891351D-48    0.468100D+00
   0   381    0.219267D-51    0.687831D-51    0.438229D-48    0.468100D+00
   0   382    0.107879D-51    0.336971D-51    0.158848D-48    0.468100D+00
   0   383    0.527496D-52    0.163752D-51    0.844387D-49    0.468100D+00
   0   384    0.260167D-52    0.809208D-52    0.596677D-49    0.468100D+00
   0   385    0.127589D-52    0.396357D-52    0.219107D-49    0.468100D+00
   0   386    0.622996D-53    0.194231D-52    0.113812D-49    0.468100D+00
   0   387    0.306221D-53    0.948501D-53    0.661818D-50    0.468100D+00
   0   388    0.150700D-53    0.462643D-53    0.301293D-50    0.468100D+00
   0   389    0.747916D-54    0.229517D-53    0.127071D-50    0.468100D+00
   0   390    0.367931D-54    0.112851D-53    0.807413D-51    0.468100D+00
   0   391    0.178053D-54    0.553975D-54    0.496293D-51    0.468100D+00
   0   392    0.873408D-55    0.272178D-54    0.152191D-51    0.468100D+00
   0   393    0.421434D-55    0.131453D-54    0.119017D-51    0.468100D+00
   0   394    0.205999D-55    0.643598D-55    0.364532D-52    0.468100D+00
   0   395    0.101920D-55    0.318606D-55    0.277260D-52    0.468100D+00
   0   396    0.502076D-56    0.156127D-55    0.158088D-52    0.468100D+00
   0   397    0.248919D-56    0.766987D-56    0.785775D-53    0.468100D+00