variables =  "IG"  "JG"  "PHI"  "Temp."  "Latent_heat"  "mm"
ZONE  I=  401  J=  101
   0     0    0.100000D+01    0.932775D+00   -0.990606D-05    0.884653D-01
   0     1    0.100000D+01    0.932775D+00   -0.592606D-05    0.884653D-01
   0     2    0.100000D+01    0.933242D+00    0.410497D-04    0.870840D-01
   0     3    0.100000D+01    0.934170D+00   -0.172515D-04    0.843313D-01
   0     4    0.100000D+01    0.935545D+00    0.101037D-03    0.802279D-01
   0     5    0.999999D+00    0.937349D+00   -0.507650D-03    0.748072D-01
   0     6    0.999998D+00    0.939554D+00   -0.628043D-03    0.681180D-01
   0     7    0.999996D+00    0.942129D+00   -0.657034D-03    0.602272D-01
   0     8    0.999989D+00    0.945039D+00   -0.665565D-02    0.512227D-01
   0     9    0.999972D+00    0.948242D+00   -0.973577D-03    0.412151D-01
   0    10    0.999930D+00    0.951692D+00    0.195716D-01    0.303476D-01
   0    11    0.999826D+00    0.955339D+00   -0.101947D+00    0.187781D-01
   0    12    0.999581D+00    0.959129D+00   -0.132194D-03    0.670484D-02
   0    13    0.998999D+00    0.962994D+00   -0.361153D+00   -0.560923D-02
   0    14    0.997612D+00    0.966863D+00    0.823820D+00   -0.179061D-01
   0    15    0.994463D+00    0.970605D+00   -0.369159D+01   -0.299363D-01
   0    16    0.987407D+00    0.974372D+00   -0.112528D+02   -0.419181D-01
   0    17    0.971636D+00    0.977955D+00    0.229344D+02   -0.529539D-01
   0    18    0.938773D+00    0.981008D+00    0.313740D+02   -0.634182D-01
   0    19    0.871850D+00    0.982837D+00   -0.727910D+02   -0.673383D-01
   0    20    0.758317D+00    0.984681D+00   -0.108677D+03   -0.761027D-01
   0    21    0.605319D+00    0.981529D+00   -0.347989D+02   -0.690283D-01
   0    22    0.462840D+00    0.980732D+00    0.104973D+03   -0.642820D-01
   0    23    0.393819D+00    0.985765D+00   -0.766349D+02   -0.813289D-01
   0    24    0.420982D+00    0.985114D+00   -0.114356D+03   -0.718119D-01
   0    25    0.530604D+00    0.985871D+00    0.326653D+02   -0.798050D-01
   0    26    0.667905D+00    0.991548D+00    0.822658D+02   -0.950538D-01
   0    27    0.783584D+00    0.100061D+01    0.464278D+02   -0.120667D+00
   0    28    0.855117D+00    0.100563D+01   -0.101144D+03   -0.135285D+00
   0    29    0.880075D+00    0.101240D+01    0.207038D+02   -0.152305D+00
   0    30    0.868466D+00    0.101841D+01    0.309533D+02   -0.163811D+00
   0    31    0.822024D+00    0.102117D+01   -0.568256D+02   -0.171394D+00
   0    32    0.749113D+00    0.101862D+01    0.827077D+02   -0.168120D+00
   0    33    0.668287D+00    0.101501D+01    0.139542D+03   -0.154885D+00
   0    34    0.599878D+00    0.100568D+01   -0.165061D+03   -0.130620D+00
   0    35    0.571926D+00    0.998509D+00   -0.188928D+03   -0.111460D+00
   0    36    0.580413D+00    0.990073D+00    0.184210D+03   -0.954777D-01
   0    37    0.617813D+00    0.993789D+00    0.195709D+02   -0.953355D-01
   0    38    0.659849D+00    0.993550D+00   -0.306591D+02   -0.962059D-01
   0    39    0.690212D+00    0.998212D+00   -0.132821D+03   -0.109129D+00
   0    40    0.701746D+00    0.100241D+01   -0.334881D+02   -0.121164D+00
   0    41    0.688612D+00    0.100717D+01    0.126901D+03   -0.137436D+00
   0    42    0.660652D+00    0.100403D+01    0.182009D+03   -0.131644D+00
   0    43    0.628456D+00    0.998640D+00   -0.136348D+03   -0.114219D+00
   0    44    0.592766D+00    0.995773D+00    0.117422D+00   -0.109729D+00
   0    45    0.566243D+00    0.991798D+00    0.259559D+01   -0.956330D-01
   0    46    0.549188D+00    0.984021D+00    0.365986D+01   -0.726703D-01
   0    47    0.542017D+00    0.981228D+00    0.206337D+03   -0.651912D-01
   0    48    0.545109D+00    0.983385D+00   -0.134124D+01   -0.724846D-01
   0    49    0.548173D+00    0.979749D+00    0.633712D+02   -0.636857D-01
   0    50    0.554747D+00    0.982425D+00   -0.658670D+02   -0.696555D-01
   0    51    0.554161D+00    0.982415D+00    0.286710D+02   -0.741338D-01
   0    52    0.558351D+00    0.982154D+00   -0.328601D+02   -0.671628D-01
   0    53    0.562904D+00    0.983845D+00    0.148670D+02   -0.742235D-01
   0    54    0.567729D+00    0.982703D+00    0.191910D+03   -0.609695D-01
   0    55    0.573748D+00    0.987880D+00    0.140475D+03   -0.799702D-01
   0    56    0.579275D+00    0.988245D+00    0.820122D+02   -0.855929D-01
   0    57    0.587040D+00    0.990294D+00   -0.139039D+03   -0.888101D-01
   0    58    0.589816D+00    0.985417D+00    0.434969D+01   -0.759930D-01
   0    59    0.592602D+00    0.990805D+00   -0.812736D+02   -0.893142D-01
   0    60    0.598428D+00    0.988504D+00    0.516428D+02   -0.883233D-01
   0    61    0.597936D+00    0.990367D+00   -0.152300D+03   -0.911552D-01
   0    62    0.597849D+00    0.992300D+00   -0.559412D+02   -0.903770D-01
   0    63    0.597602D+00    0.992544D+00    0.489935D+02   -0.947492D-01
   0    64    0.593906D+00    0.987117D+00   -0.176635D+03   -0.834402D-01
   0    65    0.584590D+00    0.987077D+00   -0.194139D+03   -0.838774D-01
   0    66    0.581231D+00    0.989213D+00    0.134616D+03   -0.846079D-01
   0    67    0.577087D+00    0.983004D+00    0.153696D+03   -0.692436D-01
   0    68    0.570032D+00    0.983292D+00    0.775243D+02   -0.729902D-01
   0    69    0.569815D+00    0.988946D+00    0.862156D+02   -0.912427D-01
   0    70    0.569362D+00    0.987258D+00   -0.197637D+03   -0.790371D-01
   0    71    0.569320D+00    0.983322D+00    0.521474D+02   -0.683336D-01
   0    72    0.568603D+00    0.986807D+00   -0.178116D+03   -0.855006D-01
   0    73    0.566221D+00    0.984766D+00    0.193787D+03   -0.756361D-01
   0    74    0.570248D+00    0.977740D+00    0.369010D+02   -0.494025D-01
   0    75    0.568094D+00    0.982726D+00    0.310609D+02   -0.702094D-01
   0    76    0.561997D+00    0.984272D+00    0.584390D+02   -0.675119D-01
   0    77    0.559876D+00    0.983743D+00    0.164457D+03   -0.754958D-01
   0    78    0.557973D+00    0.985486D+00    0.745684D+02   -0.710480D-01
   0    79    0.558713D+00    0.984222D+00    0.417920D+02   -0.731946D-01
   0    80    0.555785D+00    0.985420D+00    0.265893D+00   -0.738428D-01
   0    81    0.557175D+00    0.980329D+00   -0.650425D+02   -0.668674D-01
   0    82    0.557219D+00    0.981098D+00    0.139347D+03   -0.671833D-01
   0    83    0.555787D+00    0.982214D+00   -0.270275D+02   -0.679482D-01
   0    84    0.556545D+00    0.985736D+00   -0.126103D+02   -0.725208D-01
   0    85    0.557531D+00    0.981745D+00    0.986913D+02   -0.649267D-01
   0    86    0.553139D+00    0.982674D+00   -0.113857D+03   -0.600766D-01
   0    87    0.551216D+00    0.978325D+00   -0.964737D+02   -0.595691D-01
   0    88    0.549225D+00    0.979671D+00    0.120024D+03   -0.633350D-01
   0    89    0.546923D+00    0.984115D+00    0.813815D+02   -0.701861D-01
   0    90    0.545088D+00    0.978225D+00    0.161204D+03   -0.581461D-01
   0    91    0.542192D+00    0.982151D+00    0.199134D+03   -0.583667D-01
   0    92    0.540458D+00    0.978007D+00    0.469936D+02   -0.602019D-01
   0    93    0.542761D+00    0.979795D+00   -0.166373D+02   -0.533744D-01
   0    94    0.546776D+00    0.980831D+00    0.926946D+02   -0.584001D-01
   0    95    0.550339D+00    0.979968D+00   -0.620718D+02   -0.540837D-01
   0    96    0.556519D+00    0.980428D+00   -0.916218D+02   -0.564730D-01
   0    97    0.557654D+00    0.981883D+00   -0.757992D+02   -0.623338D-01
   0    98    0.564992D+00    0.981477D+00    0.318284D+02   -0.603152D-01
   0    99    0.566603D+00    0.983519D+00   -0.296521D+01   -0.689075D-01
   0   100    0.572182D+00    0.984981D+00   -0.122659D+03   -0.757000D-01
   0   101    0.570847D+00    0.980578D+00   -0.163177D+03   -0.643156D-01
   0   102    0.573238D+00    0.987028D+00   -0.258293D+02   -0.868313D-01
   0   103    0.572738D+00    0.982737D+00    0.502770D+02   -0.706547D-01
   0   104    0.574391D+00    0.985300D+00    0.900260D+02   -0.798722D-01
   0   105    0.577639D+00    0.985378D+00   -0.194864D+03   -0.819056D-01
   0   106    0.579363D+00    0.986387D+00    0.950699D+02   -0.786486D-01
   0   107    0.579581D+00    0.988856D+00   -0.641398D+02   -0.807984D-01
   0   108    0.581506D+00    0.990090D+00    0.603755D+02   -0.867081D-01
   0   109    0.586263D+00    0.990153D+00   -0.184114D+02   -0.868254D-01
   0   110    0.588491D+00    0.985928D+00    0.432524D+02   -0.710570D-01
   0   111    0.593145D+00    0.988358D+00   -0.229513D+03   -0.847250D-01
   0   112    0.589216D+00    0.990051D+00   -0.826428D+02   -0.871960D-01
   0   113    0.594973D+00    0.989000D+00   -0.339792D+01   -0.895149D-01
   0   114    0.590630D+00    0.987764D+00    0.132981D+03   -0.787895D-01
   0   115    0.590485D+00    0.981692D+00   -0.167464D+03   -0.665962D-01
   0   116    0.583857D+00    0.981570D+00   -0.113382D+03   -0.669877D-01
   0   117    0.583500D+00    0.987155D+00    0.180286D+03   -0.803300D-01
   0   118    0.583767D+00    0.987124D+00    0.176644D+03   -0.758136D-01
   0   119    0.587025D+00    0.985400D+00    0.118850D+03   -0.719668D-01
   0   120    0.592332D+00    0.986884D+00   -0.403693D+02   -0.862252D-01
   0   121    0.599898D+00    0.990103D+00    0.224520D+02   -0.873798D-01
   0   122    0.605079D+00    0.988786D+00    0.155991D+03   -0.897334D-01
   0   123    0.607670D+00    0.992619D+00   -0.178929D+03   -0.925634D-01
   0   124    0.606367D+00    0.992806D+00   -0.405285D+02   -0.999390D-01
   0   125    0.606240D+00    0.994056D+00    0.333028D+02   -0.100459D+00
   0   126    0.606538D+00    0.988276D+00   -0.153653D+03   -0.882712D-01
   0   127    0.603076D+00    0.988266D+00   -0.185427D+03   -0.810195D-01
   0   128    0.596552D+00    0.992008D+00    0.293904D+02   -0.921166D-01
   0   129    0.592734D+00    0.990456D+00    0.200061D+03   -0.912143D-01
   0   130    0.589701D+00    0.991487D+00   -0.190417D+02   -0.928246D-01
   0   131    0.587048D+00    0.988771D+00   -0.127728D+03   -0.847329D-01
   0   132    0.585146D+00    0.988320D+00    0.195125D+02   -0.894225D-01
   0   133    0.581738D+00    0.984226D+00   -0.129857D+03   -0.776848D-01
   0   134    0.581921D+00    0.983036D+00   -0.117879D+03   -0.714651D-01
   0   135    0.578598D+00    0.987555D+00   -0.894034D+02   -0.817832D-01
   0   136    0.577366D+00    0.987708D+00   -0.186828D+03   -0.768596D-01
   0   137    0.575297D+00    0.986529D+00    0.190787D+03   -0.734522D-01
   0   138    0.576260D+00    0.982686D+00    0.143622D+03   -0.697891D-01
   0   139    0.577594D+00    0.984375D+00   -0.194899D+03   -0.641109D-01
   0   140    0.577474D+00    0.986059D+00    0.535954D+01   -0.761196D-01
   0   141    0.573917D+00    0.981266D+00   -0.414083D+02   -0.595804D-01
   0   142    0.573472D+00    0.980394D+00    0.100148D+03   -0.597023D-01
   0   143    0.572597D+00    0.986606D+00    0.175192D+02   -0.751821D-01
   0   144    0.570710D+00    0.986732D+00   -0.169188D+03   -0.777527D-01
   0   145    0.566901D+00    0.985587D+00    0.151045D+03   -0.790708D-01
   0   146    0.566558D+00    0.985728D+00    0.209514D+03   -0.798324D-01
   0   147    0.567120D+00    0.989067D+00    0.157795D+03   -0.848289D-01
   0   148    0.567268D+00    0.984036D+00   -0.683036D+02   -0.651030D-01
   0   149    0.568166D+00    0.984358D+00   -0.118623D+03   -0.698086D-01
   0   150    0.561859D+00    0.980385D+00    0.829854D+02   -0.644274D-01
   0   151    0.560855D+00    0.983496D+00    0.159689D+03   -0.735099D-01
   0   152    0.562883D+00    0.985501D+00   -0.366950D+01   -0.811692D-01
   0   153    0.563589D+00    0.981770D+00    0.606794D+02   -0.672657D-01
   0   154    0.564569D+00    0.984243D+00    0.678655D+02   -0.669991D-01
   0   155    0.565329D+00    0.986639D+00    0.338169D+02   -0.751803D-01
   0   156    0.565800D+00    0.984575D+00   -0.112325D+03   -0.775004D-01
   0   157    0.566167D+00    0.983060D+00   -0.149863D+03   -0.691708D-01
   0   158    0.567779D+00    0.982489D+00   -0.176791D+03   -0.650374D-01
   0   159    0.570508D+00    0.985170D+00   -0.180196D+03   -0.740545D-01
   0   160    0.572423D+00    0.985508D+00   -0.107706D+03   -0.738301D-01
   0   161    0.572839D+00    0.985713D+00    0.192992D+02   -0.842526D-01
   0   162    0.573423D+00    0.984330D+00    0.722248D+02   -0.736643D-01
   0   163    0.572499D+00    0.984777D+00   -0.197903D+03   -0.722851D-01
   0   164    0.572776D+00    0.983936D+00   -0.104774D+03   -0.723244D-01
   0   165    0.575292D+00    0.986143D+00    0.331408D+02   -0.763059D-01
   0   166    0.575350D+00    0.983320D+00    0.527751D+01   -0.725068D-01
   0   167    0.577136D+00    0.981083D+00   -0.103513D+03   -0.674245D-01
   0   168    0.574779D+00    0.979481D+00   -0.533086D+02   -0.598810D-01
   0   169    0.573522D+00    0.984308D+00   -0.855709D+02   -0.785615D-01
   0   170    0.577725D+00    0.984701D+00   -0.946988D+02   -0.769961D-01
   0   171    0.578865D+00    0.983416D+00   -0.423586D+02   -0.723212D-01
   0   172    0.578259D+00    0.984223D+00   -0.201645D+03   -0.726731D-01
   0   173    0.575487D+00    0.982541D+00   -0.155629D+03   -0.702010D-01
   0   174    0.574132D+00    0.985470D+00    0.106513D+03   -0.765642D-01
   0   175    0.573204D+00    0.984186D+00   -0.145566D+03   -0.733561D-01
   0   176    0.573308D+00    0.986929D+00   -0.923893D+02   -0.796786D-01
   0   177    0.572420D+00    0.984218D+00   -0.917374D+02   -0.666262D-01
   0   178    0.575248D+00    0.982883D+00   -0.160695D+03   -0.735297D-01
   0   179    0.575959D+00    0.982897D+00    0.746772D+02   -0.734650D-01
   0   180    0.576691D+00    0.983612D+00   -0.105255D+03   -0.746559D-01
   0   181    0.578068D+00    0.982766D+00    0.197410D+03   -0.707521D-01
   0   182    0.580510D+00    0.988404D+00   -0.223083D+03   -0.793184D-01
   0   183    0.578814D+00    0.984836D+00   -0.105586D+03   -0.764701D-01
   0   184    0.579315D+00    0.988065D+00    0.465065D+02   -0.873854D-01
   0   185    0.579204D+00    0.985114D+00    0.156909D+03   -0.726147D-01
   0   186    0.581109D+00    0.984948D+00   -0.304911D+02   -0.788648D-01
   0   187    0.579337D+00    0.984474D+00   -0.736610D+02   -0.707008D-01
   0   188    0.578458D+00    0.985865D+00   -0.178508D+03   -0.817898D-01
   0   189    0.581691D+00    0.987272D+00    0.196427D+02   -0.764630D-01
   0   190    0.581647D+00    0.986772D+00   -0.100706D+03   -0.811741D-01
   0   191    0.577020D+00    0.984073D+00   -0.176522D+03   -0.753254D-01
   0   192    0.577417D+00    0.988324D+00    0.298025D+01   -0.857421D-01
   0   193    0.579558D+00    0.986404D+00   -0.128692D+03   -0.775267D-01
   0   194    0.580194D+00    0.984403D+00   -0.427121D+02   -0.693387D-01
   0   195    0.579768D+00    0.987979D+00   -0.192455D+02   -0.827372D-01
   0   196    0.579165D+00    0.989503D+00   -0.717512D+01   -0.828905D-01
   0   197    0.575646D+00    0.987695D+00    0.108700D+03   -0.845686D-01
   0   198    0.579018D+00    0.986752D+00    0.140044D+03   -0.814193D-01
   0   199    0.582871D+00    0.984799D+00   -0.269650D+02   -0.777648D-01
   0   200    0.581129D+00    0.985520D+00   -0.145354D+03   -0.714243D-01
   0   201    0.579306D+00    0.985839D+00   -0.197513D+03   -0.762763D-01
   0   202    0.574326D+00    0.984246D+00   -0.131491D+03   -0.734844D-01
   0   203    0.577600D+00    0.983543D+00   -0.708779D+02   -0.727361D-01
   0   204    0.578386D+00    0.983754D+00    0.366255D+02   -0.775911D-01
   0   205    0.577728D+00    0.982883D+00   -0.941471D+02   -0.726177D-01
   0   206    0.573815D+00    0.984669D+00   -0.182266D+02   -0.771751D-01
   0   207    0.576086D+00    0.986557D+00   -0.906448D+02   -0.726962D-01
   0   208    0.576678D+00    0.984113D+00   -0.134956D+03   -0.745144D-01
   0   209    0.575066D+00    0.987407D+00   -0.117852D+03   -0.781572D-01
   0   210    0.578000D+00    0.983613D+00   -0.347478D+02   -0.722961D-01
   0   211    0.574699D+00    0.982557D+00    0.186601D+03   -0.701940D-01
   0   212    0.576599D+00    0.986798D+00    0.114245D+03   -0.835438D-01
   0   213    0.576041D+00    0.987663D+00    0.201446D+03   -0.828355D-01
   0   214    0.576940D+00    0.987738D+00    0.179559D+03   -0.817306D-01
   0   215    0.577793D+00    0.984099D+00    0.800758D+02   -0.698666D-01
   0   216    0.574912D+00    0.985811D+00    0.139661D+03   -0.721706D-01
   0   217    0.574020D+00    0.983563D+00    0.121884D+03   -0.764136D-01
   0   218    0.577180D+00    0.986184D+00   -0.161401D+03   -0.785989D-01
   0   219    0.576261D+00    0.984657D+00    0.146978D+03   -0.778205D-01
   0   220    0.576237D+00    0.985605D+00    0.210532D+03   -0.737039D-01
   0   221    0.575184D+00    0.987128D+00    0.195540D+03   -0.806611D-01
   0   222    0.576457D+00    0.985966D+00   -0.794859D+02   -0.763701D-01
   0   223    0.573888D+00    0.986315D+00    0.151980D+03   -0.727292D-01
   0   224    0.574949D+00    0.983006D+00   -0.112780D+03   -0.611274D-01
   0   225    0.573846D+00    0.984609D+00    0.435878D+02   -0.670860D-01
   0   226    0.568428D+00    0.985682D+00   -0.360192D+02   -0.778249D-01
   0   227    0.569648D+00    0.985859D+00   -0.513512D+01   -0.763356D-01
   0   228    0.574054D+00    0.987011D+00    0.159699D+03   -0.740856D-01
   0   229    0.573987D+00    0.983493D+00    0.219587D+03   -0.676544D-01
   0   230    0.578226D+00    0.984068D+00   -0.205008D+03   -0.738413D-01
   0   231    0.579474D+00    0.986440D+00   -0.725377D+02   -0.757196D-01
   0   232    0.578501D+00    0.985102D+00   -0.181489D+03   -0.723326D-01
   0   233    0.579975D+00    0.988302D+00   -0.164469D+03   -0.811004D-01
   0   234    0.577655D+00    0.985434D+00    0.816268D+02   -0.745590D-01
   0   235    0.575753D+00    0.983496D+00    0.922180D+02   -0.742397D-01
   0   236    0.577220D+00    0.984124D+00    0.379951D+02   -0.760851D-01
   0   237    0.577189D+00    0.985243D+00    0.142747D+03   -0.783867D-01
   0   238    0.576594D+00    0.984025D+00   -0.201407D+03   -0.759539D-01
   0   239    0.575660D+00    0.986544D+00   -0.598569D+02   -0.772231D-01
   0   240    0.576523D+00    0.983695D+00   -0.128807D+03   -0.708085D-01
   0   241    0.574894D+00    0.983645D+00   -0.545240D+02   -0.737840D-01
   0   242    0.574210D+00    0.983340D+00   -0.156738D+03   -0.695683D-01
   0   243    0.576959D+00    0.983290D+00    0.152316D+02   -0.661725D-01
   0   244    0.575491D+00    0.985974D+00    0.860176D+02   -0.803311D-01
   0   245    0.575889D+00    0.988809D+00    0.782410D+02   -0.839937D-01
   0   246    0.575179D+00    0.987419D+00    0.425497D+02   -0.875273D-01
   0   247    0.579645D+00    0.988854D+00    0.992996D+02   -0.825988D-01
   0   248    0.578217D+00    0.986844D+00    0.161020D+03   -0.833670D-01
   0   249    0.578488D+00    0.987231D+00   -0.186025D+03   -0.868779D-01
   0   250    0.575703D+00    0.985693D+00   -0.217449D+02   -0.747917D-01
   0   251    0.576687D+00    0.987416D+00   -0.211717D+02   -0.820132D-01
   0   252    0.576348D+00    0.986845D+00   -0.387855D+02   -0.754098D-01
   0   253    0.577502D+00    0.984545D+00    0.812298D+02   -0.751864D-01
   0   254    0.575504D+00    0.989684D+00    0.136619D+03   -0.864325D-01
   0   255    0.578454D+00    0.985331D+00    0.399270D+02   -0.754602D-01
   0   256    0.577986D+00    0.986449D+00   -0.107237D+03   -0.773322D-01
   0   257    0.577393D+00    0.983886D+00    0.190420D+03   -0.744829D-01
   0   258    0.575187D+00    0.983905D+00   -0.104678D+02   -0.764828D-01
   0   259    0.575902D+00    0.985710D+00    0.296211D+02   -0.788119D-01
   0   260    0.574973D+00    0.985045D+00    0.761149D+02   -0.798853D-01
   0   261    0.574396D+00    0.985910D+00   -0.130977D+03   -0.700267D-01
   0   262    0.575392D+00    0.984627D+00    0.127064D+03   -0.727820D-01
   0   263    0.577024D+00    0.984969D+00    0.131839D+03   -0.739012D-01
   0   264    0.578331D+00    0.987953D+00   -0.152969D+03   -0.816106D-01
   0   265    0.578308D+00    0.988514D+00   -0.659217D+02   -0.882235D-01
   0   266    0.579696D+00    0.986091D+00   -0.205282D+03   -0.735546D-01
   0   267    0.576920D+00    0.988042D+00   -0.156285D+03   -0.895865D-01
   0   268    0.579399D+00    0.987396D+00    0.841240D+02   -0.779351D-01
   0   269    0.580484D+00    0.988069D+00   -0.270830D+02   -0.805868D-01
   0   270    0.581067D+00    0.986023D+00   -0.208241D+03   -0.699620D-01
   0   271    0.580424D+00    0.986686D+00   -0.184463D+03   -0.815337D-01
   0   272    0.579160D+00    0.986838D+00    0.202685D+03   -0.782901D-01
   0   273    0.580688D+00    0.987157D+00    0.115488D+02   -0.816459D-01
   0   274    0.579602D+00    0.983540D+00    0.109710D+03   -0.759234D-01
   0   275    0.577514D+00    0.986833D+00   -0.260103D+01   -0.815602D-01
   0   276    0.578313D+00    0.988605D+00    0.157716D+03   -0.812746D-01
   0   277    0.580487D+00    0.985511D+00    0.399721D+02   -0.725401D-01
   0   278    0.578426D+00    0.987267D+00   -0.123425D+02   -0.841817D-01
   0   279    0.579307D+00    0.985368D+00    0.726596D+02   -0.785625D-01
   0   280    0.577384D+00    0.986988D+00    0.230013D+03   -0.745566D-01
   0   281    0.578630D+00    0.985881D+00   -0.169662D+03   -0.735075D-01
   0   282    0.578101D+00    0.980888D+00    0.104603D+03   -0.641660D-01
   0   283    0.577224D+00    0.988235D+00    0.150278D+03   -0.798468D-01
   0   284    0.578144D+00    0.991032D+00    0.372298D+02   -0.895955D-01
   0   285    0.575209D+00    0.986035D+00    0.928882D+02   -0.807640D-01
   0   286    0.575120D+00    0.986661D+00    0.159608D+03   -0.832540D-01
   0   287    0.576738D+00    0.986922D+00   -0.344544D+02   -0.804690D-01
   0   288    0.576256D+00    0.987707D+00   -0.649514D+02   -0.796113D-01
   0   289    0.572842D+00    0.984262D+00    0.120412D+03   -0.779510D-01
   0   290    0.575614D+00    0.981976D+00    0.195782D+03   -0.660760D-01
   0   291    0.574510D+00    0.983315D+00   -0.153745D+03   -0.690975D-01
   0   292    0.576361D+00    0.985671D+00    0.108994D+03   -0.698969D-01
   0   293    0.577843D+00    0.985094D+00    0.334864D+02   -0.702013D-01
   0   294    0.573179D+00    0.983315D+00    0.125041D+03   -0.737018D-01
   0   295    0.573951D+00    0.985544D+00    0.764939D+02   -0.806187D-01
   0   296    0.575673D+00    0.985002D+00   -0.100774D+03   -0.791358D-01
   0   297    0.574971D+00    0.985288D+00   -0.561710D+01   -0.724211D-01
   0   298    0.576153D+00    0.984199D+00    0.169196D+03   -0.735156D-01
   0   299    0.575616D+00    0.986596D+00   -0.133167D+03   -0.789208D-01
   0   300    0.575918D+00    0.985574D+00    0.304632D+02   -0.766391D-01
   0   301    0.572428D+00    0.985791D+00    0.861064D+02   -0.769209D-01
   0   302    0.573294D+00    0.982275D+00   -0.148365D+03   -0.724556D-01
   0   303    0.571867D+00    0.980811D+00   -0.737221D+02   -0.551965D-01
   0   304    0.566558D+00    0.969638D+00   -0.117550D+03   -0.264582D-01
   0   305    0.556280D+00    0.960757D+00    0.218013D+02    0.655604D-02
   0   306    0.537750D+00    0.940570D+00    0.265760D+03    0.689108D-01
   0   307    0.488481D+00    0.882572D+00    0.273384D+03    0.215374D+00
   0   308    0.397215D+00    0.765067D+00    0.463274D+03    0.351983D+00
   0   309    0.275691D+00    0.585297D+00    0.334544D+03    0.418832D+00
   0   310    0.167081D+00    0.391733D+00    0.404590D+03    0.446082D+00
   0   311    0.911156D-01    0.233802D+00    0.164753D+03    0.457718D+00
   0   312    0.472374D-01    0.129769D+00    0.899921D+02    0.463049D+00
   0   313    0.235655D-01    0.685211D-01    0.699010D+02    0.465620D+00
   0   314    0.118167D-01    0.349180D-01    0.256758D+02    0.466880D+00
   0   315    0.579930D-02    0.175286D-01    0.174882D+02    0.467496D+00
   0   316    0.288308D-02    0.872778D-02    0.717471D+01    0.467803D+00
   0   317    0.140221D-02    0.432369D-02    0.303067D+01    0.467953D+00
   0   318    0.682305D-03    0.212415D-02    0.166122D+01    0.468028D+00
   0   319    0.333401D-03    0.103618D-02    0.752769D+00    0.468065D+00
   0   320    0.163463D-03    0.507699D-03    0.240225D+00    0.468082D+00
   0   321    0.798819D-04    0.248778D-03    0.246624D+00    0.468091D+00
   0   322    0.390066D-04    0.121861D-03    0.720892D-01    0.468095D+00
   0   323    0.193134D-04    0.597397D-04    0.350104D-01    0.468098D+00
   0   324    0.947761D-05    0.293260D-04    0.214192D-01    0.468099D+00
   0   325    0.461081D-05    0.143459D-04    0.921906D-02    0.468099D+00
   0   326    0.224229D-05    0.701462D-05    0.410887D-02    0.468099D+00
   0   327    0.110983D-05    0.344264D-05    0.273603D-02    0.468099D+00
   0   328    0.544162D-06    0.169096D-05    0.149253D-02    0.468100D+00
   0   329    0.265331D-06    0.828827D-06    0.643896D-03    0.468100D+00
   0   330    0.130321D-06    0.404324D-06    0.313062D-03    0.468100D+00
   0   331    0.638767D-07    0.198689D-06    0.143309D-03    0.468100D+00
   0   332    0.310636D-07    0.978489D-07    0.105501D-03    0.468100D+00
   0   333    0.153729D-07    0.480180D-07    0.262424D-04    0.468100D+00
   0   334    0.755785D-08    0.234694D-07    0.188644D-04    0.468100D+00
   0   335    0.365776D-08    0.114824D-07    0.913815D-05    0.468100D+00
   0   336    0.178335D-08    0.562975D-08    0.457028D-05    0.468100D+00
   0   337    0.870127D-09    0.274230D-08    0.262322D-05    0.468100D+00
   0   338    0.435009D-09    0.134891D-08    0.830141D-06    0.468100D+00
   0   339    0.213271D-09    0.662464D-09    0.613781D-06    0.468100D+00
   0   340    0.104586D-09    0.324639D-09    0.156779D-06    0.468100D+00
   0   341    0.511297D-10    0.159189D-09    0.136531D-06    0.468100D+00
   0   342    0.252572D-10    0.779476D-10    0.342225D-07    0.468100D+00
   0   343    0.124406D-10    0.383663D-10    0.307132D-07    0.468100D+00
   0   344    0.602365D-11    0.187281D-10    0.106907D-07    0.468100D+00
   0   345    0.294020D-11    0.916990D-11    0.443207D-08    0.468100D+00
   0   346    0.144410D-11    0.449739D-11    0.262585D-08    0.468100D+00
   0   347    0.707978D-12    0.220092D-11    0.126826D-08    0.468100D+00
   0   348    0.345770D-12    0.108067D-11    0.844418D-09    0.468100D+00
   0   349    0.170051D-12    0.529097D-12    0.484167D-09    0.468100D+00
   0   350    0.838630D-13    0.260342D-12    0.239749D-09    0.468100D+00
   0   351    0.415329D-13    0.127955D-12    0.571105D-10    0.468100D+00
   0   352    0.200496D-13    0.626705D-13    0.544979D-10    0.468100D+00
   0   353    0.979238D-14    0.307134D-13    0.203086D-10    0.468100D+00
   0   354    0.484526D-14    0.150548D-13    0.105977D-10    0.468100D+00
   0   355    0.239978D-14    0.747067D-14    0.376726D-11    0.468100D+00
   0   356    0.118542D-14    0.366503D-14    0.331158D-11    0.468100D+00
   0   357    0.583674D-15    0.180782D-14    0.114777D-11    0.468100D+00
   0   358    0.284867D-15    0.886346D-15    0.501049D-12    0.468100D+00
   0   359    0.141087D-15    0.434716D-15    0.238693D-12    0.468100D+00
   0   360    0.686248D-16    0.215509D-15    0.146627D-12    0.468100D+00
   0   361    0.343316D-16    0.105528D-15    0.766926D-13    0.468100D+00
   0   362    0.166451D-16    0.517055D-16    0.399757D-13    0.468100D+00
   0   363    0.827395D-17    0.254770D-16    0.175972D-13    0.468100D+00
   0   364    0.403548D-17    0.125069D-16    0.112585D-13    0.468100D+00
   0   365    0.197853D-17    0.612205D-17    0.456378D-14    0.468100D+00
   0   366    0.946006D-18    0.297865D-17    0.176202D-14    0.468100D+00
   0   367    0.471972D-18    0.146231D-17    0.895634D-15    0.468100D+00
   0   368    0.232488D-18    0.719238D-18    0.340799D-15    0.468100D+00
   0   369    0.113572D-18    0.350210D-18    0.194179D-15    0.468100D+00
   0   370    0.558506D-19    0.172691D-18    0.118805D-15    0.468100D+00
   0   371    0.278195D-19    0.846529D-19    0.587268D-16    0.468100D+00
   0   372    0.136519D-19    0.420098D-19    0.385781D-16    0.468100D+00
   0   373    0.662886D-20    0.206650D-19    0.115220D-16    0.468100D+00
   0   374    0.325601D-20    0.101493D-19    0.997200D-17    0.468100D+00
   0   375    0.158463D-20    0.494775D-20    0.399650D-17    0.468100D+00
   0   376    0.776941D-21    0.243273D-20    0.136002D-17    0.468100D+00
   0   377    0.380648D-21    0.118219D-20    0.100229D-17    0.468100D+00
   0   378    0.187676D-21    0.583757D-21    0.459993D-18    0.468100D+00
   0   379    0.916909D-22    0.287879D-21    0.175217D-18    0.468100D+00
   0   380    0.452929D-22    0.141836D-21    0.110030D-18    0.468100D+00
   0   381    0.225086D-22    0.690795D-22    0.533905D-19    0.468100D+00
   0   382    0.110394D-22    0.338631D-22    0.268705D-19    0.468100D+00
   0   383    0.535266D-23    0.165918D-22    0.159412D-19    0.468100D+00
   0   384    0.262613D-23    0.812667D-23    0.371937D-20    0.468100D+00
   0   385    0.126903D-23    0.398669D-23    0.265810D-20    0.468100D+00
   0   386    0.625956D-24    0.195449D-23    0.147620D-20    0.468100D+00
   0   387    0.311124D-24    0.964925D-24    0.435976D-21    0.468100D+00
   0   388    0.152981D-24    0.474085D-24    0.336712D-21    0.468100D+00
   0   389    0.741119D-25    0.232123D-24    0.197756D-21    0.468100D+00
   0   390    0.367648D-25    0.114129D-24    0.105620D-21    0.468100D+00
   0   391    0.177763D-25    0.556773D-25    0.425646D-22    0.468100D+00
   0   392    0.880500D-26    0.273758D-25    0.149702D-22    0.468100D+00
   0   393    0.429602D-26    0.134068D-25    0.876587D-23    0.468100D+00
   0   394    0.211875D-26    0.657524D-26    0.628809D-23    0.468100D+00
   0   395    0.104016D-26    0.320861D-26    0.176720D-23    0.468100D+00
   0   396    0.514834D-27    0.157433D-26    0.143797D-23    0.468100D+00
   0   397    0.253665D-27    0.774413D-27    0.750904D-24    0.468100D+00