variables =  "IG"  "JG"  "PHI"  "Temp."  "Latent_heat"  "mm"
ZONE  I=  401  J=  101
   0     0    0.100000D+01    0.949786D+00    0.181963D-05    0.363612D-01
   0     1    0.100000D+01    0.949786D+00    0.127091D-05    0.363612D-01
   0     2    0.100000D+01    0.950033D+00    0.414012D-05    0.355821D-01
   0     3    0.100000D+01    0.950525D+00   -0.433854D-04    0.340328D-01
   0     4    0.100000D+01    0.951254D+00    0.109048D-03    0.317314D-01
   0     5    0.999999D+00    0.952211D+00   -0.555839D-03    0.287046D-01
   0     6    0.999998D+00    0.953384D+00    0.100126D-03    0.249883D-01
   0     7    0.999996D+00    0.954757D+00    0.416331D-02    0.206271D-01
   0     8    0.999990D+00    0.956315D+00    0.418277D-02    0.156744D-01
   0     9    0.999975D+00    0.958036D+00   -0.150336D-01    0.101918D-01
   0    10    0.999940D+00    0.959901D+00   -0.355337D-01    0.424525D-02
   0    11    0.999856D+00    0.961886D+00   -0.105487D+00   -0.208903D-02
   0    12    0.999661D+00    0.963975D+00    0.141782D+00   -0.874436D-02
   0    13    0.999201D+00    0.966136D+00    0.251444D+00   -0.156493D-01
   0    14    0.998125D+00    0.968352D+00   -0.819217D+00   -0.226857D-01
   0    15    0.995643D+00    0.970677D+00    0.577984D+00   -0.300431D-01
   0    16    0.989946D+00    0.972824D+00   -0.630414D+01   -0.370219D-01
   0    17    0.977438D+00    0.975335D+00   -0.134411D+02   -0.443660D-01
   0    18    0.950331D+00    0.978241D+00   -0.151651D+02   -0.524884D-01
   0    19    0.895708D+00    0.981186D+00    0.502498D+02   -0.628125D-01
   0    20    0.795044D+00    0.980319D+00   -0.248559D+02   -0.637617D-01
   0    21    0.655356D+00    0.988658D+00    0.147936D+03   -0.858212D-01
   0    22    0.512410D+00    0.987026D+00   -0.157455D+03   -0.831249D-01
   0    23    0.434760D+00    0.988108D+00   -0.110941D+03   -0.768634D-01
   0    24    0.455515D+00    0.986676D+00   -0.165863D+03   -0.836200D-01
   0    25    0.568775D+00    0.991635D+00   -0.197131D+03   -0.954603D-01
   0    26    0.715271D+00    0.988875D+00    0.100686D+03   -0.876266D-01
   0    27    0.833056D+00    0.995502D+00    0.305203D+02   -0.107001D+00
   0    28    0.904982D+00    0.997399D+00    0.309481D+02   -0.113050D+00
   0    29    0.938901D+00    0.100097D+01    0.445830D+02   -0.121171D+00
   0    30    0.944073D+00    0.100487D+01   -0.327264D+02   -0.130227D+00
   0    31    0.927108D+00    0.100846D+01    0.400027D+02   -0.139859D+00
   0    32    0.885900D+00    0.100861D+01   -0.652981D+02   -0.139068D+00
   0    33    0.818876D+00    0.101081D+01   -0.764734D+01   -0.149157D+00
   0    34    0.736873D+00    0.101043D+01    0.763703D+02   -0.140657D+00
   0    35    0.667147D+00    0.101027D+01   -0.157813D+03   -0.146180D+00
   0    36    0.639872D+00    0.100585D+01   -0.635359D+02   -0.133132D+00
   0    37    0.658793D+00    0.100595D+01    0.296405D+02   -0.134147D+00
   0    38    0.711817D+00    0.100778D+01    0.208423D+03   -0.135358D+00
   0    39    0.769256D+00    0.101004D+01    0.132534D+03   -0.141773D+00
   0    40    0.805622D+00    0.101269D+01    0.130002D+03   -0.148895D+00
   0    41    0.812011D+00    0.101599D+01   -0.288388D+02   -0.156897D+00
   0    42    0.783844D+00    0.101758D+01   -0.323125D+02   -0.163814D+00
   0    43    0.726033D+00    0.101419D+01    0.640387D+01   -0.153643D+00
   0    44    0.640596D+00    0.100517D+01   -0.103829D+03   -0.130965D+00
   0    45    0.552309D+00    0.994540D+00   -0.992453D+02   -0.984028D-01
   0    46    0.480163D+00    0.988184D+00    0.458081D+02   -0.799587D-01
   0    47    0.440827D+00    0.979059D+00    0.614289D+01   -0.516014D-01
   0    48    0.431066D+00    0.969464D+00    0.711123D+02   -0.315282D-01
   0    49    0.446948D+00    0.963843D+00   -0.131879D+03   -0.130101D-01
   0    50    0.473464D+00    0.968239D+00    0.801685D+00   -0.238948D-01
   0    51    0.505245D+00    0.969305D+00    0.325136D+01   -0.237400D-01
   0    52    0.530011D+00    0.975097D+00   -0.647241D+02   -0.493451D-01
   0    53    0.547396D+00    0.984084D+00    0.154878D+03   -0.698386D-01
   0    54    0.555799D+00    0.985023D+00    0.378739D+01   -0.793221D-01
   0    55    0.567970D+00    0.989173D+00   -0.204887D+03   -0.842117D-01
   0    56    0.575211D+00    0.989035D+00    0.117439D+03   -0.885214D-01
   0    57    0.589037D+00    0.989484D+00    0.154807D+03   -0.898392D-01
   0    58    0.608164D+00    0.988625D+00    0.767216D+02   -0.887651D-01
   0    59    0.622567D+00    0.991599D+00    0.121226D+02   -0.996350D-01
   0    60    0.632068D+00    0.996321D+00    0.167120D+03   -0.108700D+00
   0    61    0.638150D+00    0.995797D+00   -0.175879D+03   -0.105776D+00
   0    62    0.639192D+00    0.995946D+00    0.168838D+03   -0.100663D+00
   0    63    0.631649D+00    0.992908D+00   -0.860616D+02   -0.975525D-01
   0    64    0.621807D+00    0.993261D+00   -0.976621D+02   -0.964789D-01
   0    65    0.606867D+00    0.991331D+00    0.255826D+02   -0.966475D-01
   0    66    0.590272D+00    0.987726D+00   -0.161548D+03   -0.781689D-01
   0    67    0.572443D+00    0.983520D+00   -0.131697D+03   -0.735023D-01
   0    68    0.560846D+00    0.980895D+00    0.118185D+03   -0.648600D-01
   0    69    0.552268D+00    0.985897D+00    0.109010D+03   -0.749592D-01
   0    70    0.544465D+00    0.983458D+00    0.201256D+03   -0.696919D-01
   0    71    0.542120D+00    0.981974D+00    0.165495D+03   -0.619992D-01
   0    72    0.540260D+00    0.979808D+00   -0.696906D+00   -0.530207D-01
   0    73    0.539585D+00    0.976567D+00    0.176519D+03   -0.497952D-01
   0    74    0.538445D+00    0.975756D+00   -0.444464D+02   -0.506406D-01
   0    75    0.536250D+00    0.980882D+00    0.644996D+02   -0.693022D-01
   0    76    0.531530D+00    0.980763D+00   -0.100827D+03   -0.577056D-01
   0    77    0.524621D+00    0.978303D+00   -0.117925D+02   -0.613168D-01
   0    78    0.515993D+00    0.976396D+00   -0.862816D+02   -0.513604D-01
   0    79    0.516869D+00    0.976653D+00   -0.243075D+03   -0.451505D-01
   0    80    0.512315D+00    0.971700D+00   -0.146149D+03   -0.385791D-01
   0    81    0.516006D+00    0.975816D+00   -0.270984D+02   -0.419689D-01
   0    82    0.517924D+00    0.977450D+00   -0.308520D+01   -0.523273D-01
   0    83    0.519354D+00    0.974651D+00    0.835603D+01   -0.429552D-01
   0    84    0.520625D+00    0.976192D+00   -0.859779D+02   -0.483680D-01
   0    85    0.520116D+00    0.977315D+00   -0.210669D+03   -0.439529D-01
   0    86    0.515586D+00    0.971108D+00   -0.768055D+02   -0.353848D-01
   0    87    0.504895D+00    0.977898D+00   -0.610436D+02   -0.508362D-01
   0    88    0.496839D+00    0.973648D+00    0.540419D+01   -0.407741D-01
   0    89    0.489332D+00    0.969840D+00    0.155960D+03   -0.274108D-01
   0    90    0.479757D+00    0.972596D+00    0.832781D+01   -0.346844D-01
   0    91    0.467292D+00    0.967594D+00   -0.198426D+03   -0.219419D-01
   0    92    0.465894D+00    0.964847D+00   -0.228003D+03   -0.409845D-02
   0    93    0.465621D+00    0.963946D+00    0.216428D+03   -0.732956D-02
   0    94    0.479659D+00    0.969340D+00    0.114962D+03   -0.248950D-01
   0    95    0.495006D+00    0.972712D+00    0.171228D+03   -0.369044D-01
   0    96    0.511733D+00    0.977344D+00    0.117902D+03   -0.476554D-01
   0    97    0.523295D+00    0.974083D+00   -0.108270D+03   -0.435938D-01
   0    98    0.536463D+00    0.979448D+00   -0.114421D+02   -0.565376D-01
   0    99    0.546468D+00    0.979367D+00    0.236359D+03   -0.508776D-01
   0   100    0.554377D+00    0.980882D+00   -0.327532D+02   -0.673119D-01
   0   101    0.558230D+00    0.982986D+00    0.397146D+02   -0.724960D-01
   0   102    0.560004D+00    0.985712D+00    0.978300D+02   -0.735442D-01
   0   103    0.562303D+00    0.985005D+00    0.158788D+03   -0.733393D-01
   0   104    0.564382D+00    0.982451D+00   -0.174028D+03   -0.677074D-01
   0   105    0.569836D+00    0.986894D+00    0.844762D+02   -0.769360D-01
   0   106    0.578570D+00    0.986458D+00    0.431113D+02   -0.774308D-01
   0   107    0.585160D+00    0.988842D+00   -0.170874D+03   -0.830665D-01
   0   108    0.595576D+00    0.983052D+00   -0.160478D+03   -0.696782D-01
   0   109    0.606062D+00    0.987894D+00   -0.167310D+01   -0.898534D-01
   0   110    0.611607D+00    0.991814D+00   -0.145214D+03   -0.978733D-01
   0   111    0.617773D+00    0.993381D+00    0.155318D+03   -0.102381D+00
   0   112    0.613231D+00    0.991905D+00    0.764508D+02   -0.934611D-01
   0   113    0.615040D+00    0.990073D+00   -0.724996D+02   -0.830055D-01
   0   114    0.614364D+00    0.992353D+00    0.119353D+03   -0.982979D-01
   0   115    0.611330D+00    0.987491D+00   -0.193809D+03   -0.846426D-01
   0   116    0.599949D+00    0.990201D+00    0.272407D+03   -0.848819D-01
   0   117    0.601959D+00    0.990103D+00   -0.165455D+03   -0.969095D-01
   0   118    0.609233D+00    0.990972D+00   -0.139781D+03   -0.873017D-01
   0   119    0.615409D+00    0.995945D+00   -0.102063D+03   -0.103521D+00
   0   120    0.626403D+00    0.993347D+00   -0.166971D+03   -0.105762D+00
   0   121    0.641149D+00    0.996990D+00   -0.111161D+02   -0.112145D+00
   0   122    0.654185D+00    0.100050D+01   -0.904886D+02   -0.117926D+00
   0   123    0.662342D+00    0.999995D+00    0.163406D+03   -0.121596D+00
   0   124    0.668799D+00    0.999716D+00   -0.100771D+03   -0.116606D+00
   0   125    0.669579D+00    0.996830D+00   -0.154881D+03   -0.114193D+00
   0   126    0.664648D+00    0.998243D+00   -0.135005D+03   -0.115273D+00
   0   127    0.655482D+00    0.999162D+00   -0.401189D+02   -0.114434D+00
   0   128    0.642905D+00    0.993734D+00    0.121210D+03   -0.985438D-01
   0   129    0.632912D+00    0.993428D+00    0.108724D+03   -0.970869D-01
   0   130    0.618943D+00    0.988425D+00   -0.134335D+03   -0.903219D-01
   0   131    0.605546D+00    0.988621D+00   -0.349860D+01   -0.907828D-01
   0   132    0.600245D+00    0.991973D+00   -0.945266D+02   -0.951317D-01
   0   133    0.591728D+00    0.990166D+00   -0.288553D+02   -0.897682D-01
   0   134    0.587601D+00    0.987412D+00    0.131609D+03   -0.799397D-01
   0   135    0.581890D+00    0.984368D+00    0.571842D+02   -0.753031D-01
   0   136    0.580782D+00    0.988206D+00    0.799505D+02   -0.780249D-01
   0   137    0.579926D+00    0.988499D+00    0.178971D+03   -0.805944D-01
   0   138    0.583403D+00    0.988651D+00   -0.932708D+02   -0.880277D-01
   0   139    0.574089D+00    0.987685D+00   -0.109051D+03   -0.768272D-01
   0   140    0.575075D+00    0.984784D+00   -0.192775D+03   -0.754536D-01
   0   141    0.574714D+00    0.986817D+00   -0.896539D+01   -0.793481D-01
   0   142    0.571595D+00    0.988288D+00   -0.922126D+02   -0.794572D-01
   0   143    0.564427D+00    0.985685D+00   -0.748200D+02   -0.728212D-01
   0   144    0.559735D+00    0.986714D+00   -0.135191D+03   -0.775711D-01
   0   145    0.559851D+00    0.984459D+00   -0.143475D+03   -0.753535D-01
   0   146    0.554015D+00    0.976551D+00    0.113142D+03   -0.473777D-01
   0   147    0.554537D+00    0.981231D+00   -0.130665D+03   -0.558188D-01
   0   148    0.552393D+00    0.981750D+00    0.201733D+03   -0.590766D-01
   0   149    0.550074D+00    0.985569D+00    0.731240D+02   -0.714496D-01
   0   150    0.550499D+00    0.986236D+00   -0.432769D+02   -0.782965D-01
   0   151    0.549872D+00    0.983420D+00   -0.574087D+01   -0.651206D-01
   0   152    0.544837D+00    0.978075D+00    0.531448D+01   -0.587395D-01
   0   153    0.547281D+00    0.980623D+00   -0.159178D+03   -0.587846D-01
   0   154    0.546516D+00    0.982431D+00   -0.122073D+03   -0.619772D-01
   0   155    0.544309D+00    0.982993D+00    0.237461D+03   -0.616368D-01
   0   156    0.546150D+00    0.983962D+00   -0.569495D+02   -0.685192D-01
   0   157    0.546702D+00    0.979454D+00    0.202355D+03   -0.529814D-01
   0   158    0.548550D+00    0.983584D+00   -0.117673D+03   -0.666119D-01
   0   159    0.549715D+00    0.984327D+00   -0.935282D+01   -0.747403D-01
   0   160    0.553076D+00    0.981521D+00    0.354279D+01   -0.643537D-01
   0   161    0.561522D+00    0.980240D+00   -0.131686D+03   -0.636228D-01
   0   162    0.566811D+00    0.986300D+00   -0.613206D+02   -0.773216D-01
   0   163    0.570383D+00    0.984911D+00   -0.124810D+03   -0.740673D-01
   0   164    0.569305D+00    0.979242D+00   -0.245213D+01   -0.585296D-01
   0   165    0.574263D+00    0.983243D+00   -0.116617D+02   -0.768377D-01
   0   166    0.576076D+00    0.983613D+00    0.876525D+01   -0.698416D-01
   0   167    0.580165D+00    0.982761D+00   -0.418010D+02   -0.654421D-01
   0   168    0.576980D+00    0.987113D+00   -0.128670D+03   -0.790953D-01
   0   169    0.579102D+00    0.984660D+00   -0.116969D+03   -0.753152D-01
   0   170    0.579419D+00    0.981537D+00    0.168988D+03   -0.647297D-01
   0   171    0.580143D+00    0.983976D+00   -0.157213D+03   -0.695948D-01
   0   172    0.574543D+00    0.985745D+00   -0.152362D+03   -0.703243D-01
   0   173    0.571527D+00    0.981546D+00   -0.171046D+03   -0.675187D-01
   0   174    0.574677D+00    0.982114D+00   -0.176724D+02   -0.680463D-01
   0   175    0.572644D+00    0.982777D+00   -0.803653D+02   -0.712652D-01
   0   176    0.575069D+00    0.983074D+00    0.264822D+02   -0.747666D-01
   0   177    0.573854D+00    0.985477D+00   -0.933919D+02   -0.749074D-01
   0   178    0.576234D+00    0.985493D+00    0.165091D+03   -0.744931D-01
   0   179    0.577342D+00    0.985407D+00    0.461450D+02   -0.753896D-01
   0   180    0.581000D+00    0.988336D+00    0.119077D+03   -0.861585D-01
   0   181    0.582148D+00    0.987795D+00   -0.121984D+03   -0.767401D-01
   0   182    0.584427D+00    0.980577D+00    0.163946D+03   -0.634098D-01
   0   183    0.581466D+00    0.985427D+00    0.206935D+03   -0.761485D-01
   0   184    0.585753D+00    0.985276D+00    0.608493D+01   -0.762227D-01
   0   185    0.585936D+00    0.987666D+00    0.692039D+02   -0.769219D-01
   0   186    0.585663D+00    0.987101D+00   -0.259326D+02   -0.839957D-01
   0   187    0.583630D+00    0.987716D+00   -0.975038D+02   -0.790427D-01
   0   188    0.583114D+00    0.984640D+00    0.757403D+02   -0.690217D-01
   0   189    0.581381D+00    0.984961D+00   -0.123991D+03   -0.719352D-01
   0   190    0.579401D+00    0.985679D+00    0.126489D+02   -0.804930D-01
   0   191    0.582424D+00    0.988294D+00   -0.888993D+02   -0.804867D-01
   0   192    0.581720D+00    0.986151D+00    0.246860D+02   -0.824429D-01
   0   193    0.585203D+00    0.984813D+00    0.380910D+02   -0.734742D-01
   0   194    0.583654D+00    0.985701D+00   -0.169369D+03   -0.774324D-01
   0   195    0.580693D+00    0.986135D+00   -0.705572D+02   -0.787857D-01
   0   196    0.583233D+00    0.986588D+00    0.129518D+02   -0.797531D-01
   0   197    0.580246D+00    0.984036D+00    0.158232D+03   -0.731230D-01
   0   198    0.578535D+00    0.988086D+00    0.263608D+02   -0.810439D-01
   0   199    0.580190D+00    0.983419D+00   -0.184981D+03   -0.702736D-01
   0   200    0.575927D+00    0.982344D+00    0.285388D+03   -0.591259D-01
   0   201    0.577659D+00    0.982912D+00    0.128228D+03   -0.650787D-01
   0   202    0.577999D+00    0.986273D+00   -0.899547D+02   -0.753174D-01
   0   203    0.580227D+00    0.983831D+00    0.158120D+03   -0.692651D-01
   0   204    0.575672D+00    0.989374D+00    0.301899D+02   -0.861402D-01
   0   205    0.577818D+00    0.983944D+00   -0.204639D+03   -0.736582D-01
   0   206    0.577204D+00    0.986666D+00    0.164496D+03   -0.744538D-01
   0   207    0.580006D+00    0.987572D+00   -0.214643D+03   -0.805950D-01
   0   208    0.580521D+00    0.982206D+00    0.100553D+03   -0.653944D-01
   0   209    0.584145D+00    0.983584D+00    0.175146D+03   -0.732560D-01
   0   210    0.586082D+00    0.985264D+00   -0.133370D+03   -0.798178D-01
   0   211    0.581728D+00    0.984704D+00   -0.148038D+03   -0.793166D-01
   0   212    0.578666D+00    0.985946D+00    0.954902D+02   -0.782239D-01
   0   213    0.577917D+00    0.987267D+00   -0.122636D+03   -0.874663D-01
   0   214    0.575431D+00    0.989591D+00   -0.312032D+02   -0.901899D-01
   0   215    0.573467D+00    0.989423D+00    0.181392D+03   -0.832195D-01
   0   216    0.573807D+00    0.983764D+00    0.192154D+03   -0.683301D-01
   0   217    0.575171D+00    0.983149D+00    0.109244D+03   -0.740025D-01
   0   218    0.573681D+00    0.985548D+00   -0.174135D+03   -0.799990D-01
   0   219    0.576159D+00    0.979351D+00    0.183153D+03   -0.609364D-01
   0   220    0.578487D+00    0.984988D+00   -0.188458D+03   -0.696470D-01
   0   221    0.580032D+00    0.986345D+00    0.841087D+02   -0.851820D-01
   0   222    0.578903D+00    0.986640D+00    0.128994D+03   -0.762338D-01
   0   223    0.574532D+00    0.987534D+00    0.232315D+02   -0.840763D-01
   0   224    0.569883D+00    0.982283D+00    0.158132D+02   -0.644019D-01
   0   225    0.567435D+00    0.985853D+00   -0.189125D+03   -0.808689D-01
   0   226    0.567987D+00    0.980472D+00   -0.419673D+01   -0.638055D-01
   0   227    0.566660D+00    0.983227D+00   -0.436985D+02   -0.735947D-01
   0   228    0.568907D+00    0.984421D+00   -0.589295D+02   -0.745117D-01
   0   229    0.568924D+00    0.988794D+00   -0.158447D+03   -0.810726D-01
   0   230    0.571916D+00    0.985668D+00   -0.693541D+02   -0.808459D-01
   0   231    0.574913D+00    0.988313D+00   -0.686661D+02   -0.898956D-01
   0   232    0.576176D+00    0.984324D+00    0.262202D+01   -0.774855D-01
   0   233    0.578618D+00    0.987193D+00   -0.192055D+03   -0.752929D-01
   0   234    0.579811D+00    0.986924D+00    0.142614D+02   -0.870631D-01
   0   235    0.580365D+00    0.985823D+00    0.182876D+03   -0.821147D-01
   0   236    0.579843D+00    0.985455D+00   -0.118324D+03   -0.814679D-01
   0   237    0.578689D+00    0.984299D+00   -0.306919D+02   -0.785099D-01
   0   238    0.574512D+00    0.982043D+00    0.478363D+02   -0.690591D-01
   0   239    0.578046D+00    0.985964D+00   -0.126775D+02   -0.724515D-01
   0   240    0.577496D+00    0.982586D+00    0.202991D+02   -0.713396D-01
   0   241    0.576182D+00    0.988805D+00    0.225390D+03   -0.830114D-01
   0   242    0.577768D+00    0.987337D+00    0.107759D+03   -0.832729D-01
   0   243    0.576539D+00    0.987800D+00   -0.800969D+02   -0.861839D-01
   0   244    0.573559D+00    0.987810D+00   -0.109839D+03   -0.826753D-01
   0   245    0.574229D+00    0.985948D+00    0.139659D+03   -0.779656D-01
   0   246    0.574788D+00    0.984922D+00   -0.359934D+02   -0.796558D-01
   0   247    0.579332D+00    0.987235D+00   -0.476482D+02   -0.840228D-01
   0   248    0.577055D+00    0.984584D+00    0.609492D+02   -0.777776D-01
   0   249    0.576051D+00    0.982394D+00    0.317511D+02   -0.713687D-01
   0   250    0.581216D+00    0.985798D+00   -0.652956D+02   -0.713719D-01
   0   251    0.581773D+00    0.989620D+00    0.923807D+02   -0.894056D-01
   0   252    0.582260D+00    0.985959D+00   -0.358082D+02   -0.791208D-01
   0   253    0.580432D+00    0.990365D+00   -0.887976D+02   -0.866914D-01
   0   254    0.579832D+00    0.985503D+00   -0.154830D+03   -0.740787D-01
   0   255    0.575652D+00    0.988966D+00    0.117401D+03   -0.811351D-01
   0   256    0.575394D+00    0.988780D+00   -0.130615D+03   -0.858794D-01
   0   257    0.576486D+00    0.985119D+00    0.173168D+03   -0.713731D-01
   0   258    0.579067D+00    0.986027D+00    0.119689D+03   -0.793405D-01
   0   259    0.578643D+00    0.985423D+00   -0.126438D+03   -0.737103D-01
   0   260    0.579102D+00    0.985557D+00   -0.152965D+03   -0.711408D-01
   0   261    0.577644D+00    0.987572D+00    0.673237D+01   -0.812882D-01
   0   262    0.574952D+00    0.987786D+00    0.236516D+03   -0.788662D-01
   0   263    0.579001D+00    0.984603D+00   -0.119576D+03   -0.787117D-01
   0   264    0.581855D+00    0.990741D+00    0.122792D+03   -0.901897D-01
   0   265    0.583203D+00    0.983893D+00   -0.137631D+03   -0.724182D-01
   0   266    0.581475D+00    0.988825D+00   -0.190134D+03   -0.861583D-01
   0   267    0.579159D+00    0.984410D+00    0.229991D+03   -0.688391D-01
   0   268    0.579749D+00    0.985751D+00   -0.543189D+02   -0.768476D-01
   0   269    0.578776D+00    0.983878D+00    0.137545D+03   -0.721775D-01
   0   270    0.579405D+00    0.987877D+00    0.129884D+01   -0.825407D-01
   0   271    0.581033D+00    0.987909D+00    0.246343D+02   -0.832192D-01
   0   272    0.579643D+00    0.990822D+00   -0.219060D+03   -0.893173D-01
   0   273    0.573661D+00    0.987009D+00    0.282059D+03   -0.839630D-01
   0   274    0.577125D+00    0.986204D+00   -0.179457D+03   -0.734138D-01
   0   275    0.581763D+00    0.985254D+00   -0.796982D+02   -0.765531D-01
   0   276    0.579911D+00    0.985097D+00    0.616427D+02   -0.780328D-01
   0   277    0.579420D+00    0.980783D+00   -0.605764D+02   -0.643046D-01
   0   278    0.581840D+00    0.985790D+00   -0.731726D+02   -0.812741D-01
   0   279    0.582790D+00    0.985797D+00   -0.385376D+02   -0.813679D-01
   0   280    0.580801D+00    0.987203D+00    0.183270D+02   -0.877503D-01
   0   281    0.581912D+00    0.986776D+00   -0.389548D+02   -0.826309D-01
   0   282    0.580043D+00    0.984829D+00   -0.138570D+03   -0.773343D-01
   0   283    0.578857D+00    0.983035D+00   -0.145696D+02   -0.727019D-01
   0   284    0.578493D+00    0.985298D+00    0.313642D+01   -0.681063D-01
   0   285    0.575980D+00    0.982938D+00    0.102313D+03   -0.700945D-01
   0   286    0.574618D+00    0.989077D+00    0.138153D+03   -0.822195D-01
   0   287    0.571967D+00    0.989864D+00   -0.153758D+03   -0.869793D-01
   0   288    0.575358D+00    0.985507D+00   -0.177479D+03   -0.699187D-01
   0   289    0.574647D+00    0.988170D+00   -0.362550D+01   -0.856318D-01
   0   290    0.573886D+00    0.987122D+00   -0.111475D+03   -0.884054D-01
   0   291    0.577158D+00    0.985486D+00    0.121204D+03   -0.703992D-01
   0   292    0.577260D+00    0.984543D+00    0.157172D+03   -0.742711D-01
   0   293    0.577441D+00    0.986204D+00   -0.960874D+02   -0.722720D-01
   0   294    0.574382D+00    0.986439D+00   -0.292122D+02   -0.805632D-01
   0   295    0.571030D+00    0.985240D+00   -0.242590D+02   -0.802283D-01
   0   296    0.573705D+00    0.988776D+00   -0.130813D+03   -0.845095D-01
   0   297    0.573848D+00    0.984744D+00   -0.197066D+03   -0.704343D-01
   0   298    0.575198D+00    0.986213D+00   -0.226797D+03   -0.775759D-01
   0   299    0.576001D+00    0.988409D+00   -0.708788D+02   -0.808874D-01
   0   300    0.573770D+00    0.988797D+00    0.173814D+03   -0.815549D-01
   0   301    0.572562D+00    0.990536D+00    0.638780D+02   -0.877314D-01
   0   302    0.574162D+00    0.987721D+00   -0.189427D+03   -0.831965D-01
   0   303    0.573222D+00    0.984085D+00   -0.136257D+03   -0.693830D-01
   0   304    0.575936D+00    0.984641D+00   -0.183012D+03   -0.770577D-01
   0   305    0.574464D+00    0.983553D+00    0.481629D+02   -0.628588D-01
   0   306    0.574846D+00    0.985810D+00   -0.147617D+03   -0.783428D-01
   0   307    0.574514D+00    0.985642D+00    0.868061D+02   -0.822449D-01
   0   308    0.577103D+00    0.986765D+00    0.192636D+03   -0.770218D-01
   0   309    0.580138D+00    0.989625D+00    0.877982D+02   -0.867885D-01
   0   310    0.579996D+00    0.985065D+00   -0.607159D+02   -0.768400D-01
   0   311    0.576136D+00    0.983072D+00    0.649527D+02   -0.725303D-01
   0   312    0.578999D+00    0.991234D+00    0.119647D+03   -0.897575D-01
   0   313    0.578102D+00    0.988826D+00   -0.260629D+02   -0.871787D-01
   0   314    0.577810D+00    0.985673D+00   -0.126590D+03   -0.786358D-01
   0   315    0.574703D+00    0.987414D+00    0.130305D+03   -0.853067D-01
   0   316    0.577446D+00    0.985595D+00    0.127815D+03   -0.734135D-01
   0   317    0.578335D+00    0.983741D+00    0.956448D+02   -0.686000D-01
   0   318    0.578225D+00    0.982914D+00   -0.180400D+02   -0.648227D-01
   0   319    0.576541D+00    0.989743D+00    0.270330D+01   -0.902965D-01
   0   320    0.579095D+00    0.985072D+00   -0.414465D+02   -0.786722D-01
   0   321    0.581980D+00    0.984411D+00    0.581128D+02   -0.729090D-01
   0   322    0.578244D+00    0.985194D+00    0.540875D+02   -0.705337D-01
   0   323    0.577746D+00    0.984830D+00   -0.123409D+02   -0.737593D-01
   0   324    0.573787D+00    0.984520D+00    0.851002D+01   -0.752713D-01
   0   325    0.572178D+00    0.986335D+00   -0.164327D+03   -0.858552D-01
   0   326    0.575084D+00    0.985785D+00   -0.207845D+03   -0.826698D-01
   0   327    0.576232D+00    0.984668D+00   -0.110563D+03   -0.717948D-01
   0   328    0.576287D+00    0.988332D+00    0.112292D+03   -0.810116D-01
   0   329    0.572226D+00    0.985815D+00    0.895054D+02   -0.787294D-01
   0   330    0.572082D+00    0.984613D+00   -0.116097D+02   -0.783071D-01
   0   331    0.573538D+00    0.987876D+00   -0.109450D+03   -0.774639D-01
   0   332    0.573623D+00    0.985558D+00    0.164294D+02   -0.763092D-01
   0   333    0.571971D+00    0.983680D+00    0.476419D+02   -0.657865D-01
   0   334    0.571568D+00    0.987767D+00    0.925705D+02   -0.865772D-01
   0   335    0.571243D+00    0.986031D+00    0.230140D+03   -0.706043D-01
   0   336    0.574270D+00    0.987749D+00    0.684570D+02   -0.787082D-01
   0   337    0.575246D+00    0.987061D+00    0.220677D+03   -0.735554D-01
   0   338    0.578818D+00    0.986604D+00   -0.339236D+02   -0.831317D-01
   0   339    0.575286D+00    0.985954D+00   -0.371938D+02   -0.738505D-01
   0   340    0.572852D+00    0.984378D+00    0.913959D+02   -0.715420D-01
   0   341    0.574643D+00    0.987809D+00   -0.210039D+03   -0.877521D-01
   0   342    0.574510D+00    0.984954D+00   -0.982207D+02   -0.720176D-01
   0   343    0.575350D+00    0.984963D+00   -0.498849D+02   -0.809673D-01
   0   344    0.574313D+00    0.987424D+00    0.100595D+03   -0.831983D-01
   0   345    0.574066D+00    0.987198D+00    0.193489D+02   -0.772578D-01
   0   346    0.573455D+00    0.982480D+00    0.121182D+03   -0.703508D-01
   0   347    0.576633D+00    0.988650D+00   -0.988713D+02   -0.840293D-01
   0   348    0.578069D+00    0.987111D+00   -0.205331D+03   -0.770411D-01
   0   349    0.579602D+00    0.987975D+00    0.139185D+03   -0.806714D-01
   0   350    0.578861D+00    0.985040D+00   -0.165666D+03   -0.790931D-01
   0   351    0.578606D+00    0.984203D+00   -0.995572D+01   -0.769847D-01
   0   352    0.577190D+00    0.981224D+00    0.145699D+03   -0.680326D-01
   0   353    0.575973D+00    0.987129D+00    0.568128D+02   -0.783687D-01
   0   354    0.576403D+00    0.981384D+00   -0.232733D+03   -0.628249D-01
   0   355    0.571763D+00    0.984624D+00    0.224705D+03   -0.685368D-01
   0   356    0.572944D+00    0.986045D+00    0.132664D+02   -0.850018D-01
   0   357    0.576664D+00    0.989062D+00    0.165135D+03   -0.876387D-01
   0   358    0.577260D+00    0.981808D+00    0.531294D+02   -0.646336D-01
   0   359    0.576508D+00    0.983654D+00    0.608590D+01   -0.681033D-01
   0   360    0.573262D+00    0.987716D+00    0.104011D+03   -0.820966D-01
   0   361    0.574986D+00    0.986493D+00   -0.140076D+02   -0.802378D-01
   0   362    0.574778D+00    0.982514D+00    0.486947D+01   -0.622390D-01
   0   363    0.578270D+00    0.984483D+00   -0.245714D+03   -0.727777D-01
   0   364    0.575559D+00    0.984691D+00   -0.555650D+02   -0.781558D-01
   0   365    0.580332D+00    0.987762D+00   -0.186913D+03   -0.785952D-01
   0   366    0.574869D+00    0.984830D+00   -0.162242D+02   -0.751371D-01
   0   367    0.574511D+00    0.989465D+00    0.948942D+02   -0.840797D-01
   0   368    0.573674D+00    0.987383D+00    0.148588D+02   -0.847808D-01
   0   369    0.578403D+00    0.988923D+00   -0.715323D+02   -0.827206D-01
   0   370    0.572341D+00    0.989060D+00   -0.108773D+03   -0.838455D-01
   0   371    0.571369D+00    0.982752D+00   -0.773246D+02   -0.702181D-01
   0   372    0.574467D+00    0.982320D+00   -0.364831D+02   -0.655646D-01
   0   373    0.574493D+00    0.984702D+00    0.100555D+03   -0.723596D-01
   0   374    0.577332D+00    0.983019D+00   -0.374004D+02   -0.641945D-01
   0   375    0.576436D+00    0.986393D+00   -0.145204D+03   -0.752852D-01
   0   376    0.574274D+00    0.982564D+00   -0.162495D+02   -0.716761D-01
   0   377    0.573603D+00    0.980609D+00    0.104895D+03   -0.664497D-01
   0   378    0.570156D+00    0.977904D+00    0.213421D+02   -0.491063D-01
   0   379    0.565315D+00    0.972995D+00    0.142042D+03   -0.365867D-01
   0   380    0.554717D+00    0.962482D+00   -0.178602D+03    0.113096D-03
   0   381    0.527942D+00    0.936087D+00    0.546040D+02    0.779052D-01
   0   382    0.476026D+00    0.874717D+00    0.801442D+02    0.230647D+00
   0   383    0.381943D+00    0.748871D+00    0.386853D+03    0.363385D+00
   0   384    0.256178D+00    0.563124D+00    0.321792D+03    0.423479D+00
   0   385    0.152848D+00    0.368780D+00    0.297448D+03    0.448122D+00
   0   386    0.838253D-01    0.218000D+00    0.210415D+03    0.458633D+00
   0   387    0.430565D-01    0.120729D+00    0.856966D+02    0.463462D+00
   0   388    0.217804D-01    0.634052D-01    0.369740D+02    0.465811D+00
   0   389    0.108265D-01    0.326094D-01    0.185891D+02    0.466962D+00
   0   390    0.537852D-02    0.163937D-01    0.882226D+01    0.467536D+00
   0   391    0.267453D-02    0.816244D-02    0.560491D+01    0.467823D+00
   0   392    0.130422D-02    0.402976D-02    0.242181D+01    0.467963D+00
   0   393    0.635176D-03    0.199241D-02    0.184231D+01    0.468032D+00
   0   394    0.315959D-03    0.978597D-03    0.703327D+00    0.468067D+00
   0   395    0.155737D-03    0.479115D-03    0.230141D+00    0.468083D+00
   0   396    0.752839D-04    0.235903D-03    0.184517D+00    0.468092D+00
   0   397    0.376534D-04    0.115867D-03    0.563523D-01    0.468096D+00