variables =  "IG"  "JG"  "PHI"  "Temp."  "Latent_heat"  "mm"
ZONE  I=  401  J=  101
   0     0    0.100000D+01    0.212826D+00    0.000000D+00    0.519614D+00
   0     1    0.100000D+01    0.212826D+00    0.000000D+00    0.519614D+00
   0     2    0.100000D+01    0.217065D+00    0.000000D+00    0.519437D+00
   0     3    0.100000D+01    0.225383D+00    0.000000D+00    0.519084D+00
   0     4    0.100000D+01    0.237468D+00    0.000000D+00    0.518560D+00
   0     5    0.100000D+01    0.252879D+00    0.000000D+00    0.517871D+00
   0     6    0.100000D+01    0.271073D+00    0.000000D+00    0.517027D+00
   0     7    0.100000D+01    0.291431D+00    0.000000D+00    0.516039D+00
   0     8    0.100000D+01    0.313301D+00    0.000000D+00    0.514923D+00
   0     9    0.100000D+01    0.336025D+00    0.000000D+00    0.513701D+00
   0    10    0.100000D+01    0.358975D+00    0.000000D+00    0.512394D+00
   0    11    0.100000D+01    0.381576D+00    0.000000D+00    0.511030D+00
   0    12    0.100000D+01    0.403330D+00    0.000000D+00    0.509639D+00
   0    13    0.100000D+01    0.423827D+00    0.000000D+00    0.508251D+00
   0    14    0.100000D+01    0.442756D+00    0.000000D+00    0.506898D+00
   0    15    0.100000D+01    0.459903D+00    0.000000D+00    0.505608D+00
   0    16    0.100000D+01    0.475148D+00    0.000000D+00    0.504405D+00
   0    17    0.100000D+01    0.488456D+00    0.000000D+00    0.503310D+00
   0    18    0.100000D+01    0.499866D+00    0.000000D+00    0.502335D+00
   0    19    0.100000D+01    0.509475D+00    0.000000D+00    0.501487D+00
   0    20    0.100000D+01    0.517426D+00    0.000000D+00    0.500766D+00
   0    21    0.100000D+01    0.523887D+00    0.000000D+00    0.500166D+00
   0    22    0.100000D+01    0.529045D+00    0.000000D+00    0.499679D+00
   0    23    0.100000D+01    0.533090D+00    0.000000D+00    0.499291D+00
   0    24    0.100000D+01    0.536203D+00    0.000000D+00    0.498989D+00
   0    25    0.100000D+01    0.538558D+00    0.000000D+00    0.498758D+00
   0    26    0.100000D+01    0.540305D+00    0.000000D+00    0.498586D+00
   0    27    0.100000D+01    0.541579D+00    0.000000D+00    0.498460D+00
   0    28    0.100000D+01    0.542492D+00    0.000000D+00    0.498369D+00
   0    29    0.100000D+01    0.543136D+00    0.000000D+00    0.498305D+00
   0    30    0.100000D+01    0.543585D+00    0.000000D+00    0.498260D+00
   0    31    0.100000D+01    0.543894D+00    0.000000D+00    0.498230D+00
   0    32    0.100000D+01    0.544107D+00    0.613030D-11    0.498208D+00
   0    33    0.100000D+01    0.544255D+00    0.490424D-10    0.498193D+00
   0    34    0.100000D+01    0.544361D+00    0.251342D-09    0.498183D+00
   0    35    0.100000D+01    0.544442D+00    0.160001D-08    0.498175D+00
   0    36    0.100000D+01    0.544509D+00    0.963070D-08    0.498168D+00
   0    37    0.100000D+01    0.544572D+00    0.528493D-07    0.498162D+00
   0    38    0.100000D+01    0.544634D+00    0.345307D-06    0.498155D+00
   0    39    0.100000D+01    0.544694D+00    0.177004D-05    0.498149D+00
   0    40    0.100000D+01    0.544748D+00    0.974303D-05    0.498144D+00
   0    41    0.100000D+01    0.544788D+00    0.619326D-04    0.498140D+00
   0    42    0.100000D+01    0.544807D+00    0.423414D-03    0.498138D+00
   0    43    0.999999D+00    0.544803D+00    0.250688D-02    0.498138D+00
   0    44    0.999993D+00    0.544792D+00    0.120599D-01    0.498139D+00
   0    45    0.999960D+00    0.544797D+00    0.816915D-01    0.498139D+00
   0    46    0.999763D+00    0.544810D+00    0.492358D+00    0.498138D+00
   0    47    0.998596D+00    0.544673D+00    0.307018D+01    0.498153D+00
   0    48    0.991716D+00    0.543112D+00    0.144238D+02    0.498313D+00
   0    49    0.951383D+00    0.532606D+00    0.101059D+03    0.499383D+00
   0    50    0.741005D+00    0.481793D+00    0.420720D+03    0.504059D+00
   0    51    0.274862D+00    0.268152D+00    0.384254D+03    0.517389D+00
   0    52    0.682367D-01    0.102427D+00    0.128409D+03    0.523795D+00
   0    53    0.151365D-01    0.328675D-01    0.243757D+02    0.525910D+00
   0    54    0.329856D-02    0.964910D-02    0.579425D+01    0.526558D+00
   0    55    0.717896D-03    0.267535D-02    0.145372D+01    0.526748D+00
   0    56    0.158516D-03    0.715599D-03    0.247369D+00    0.526800D+00
   0    57    0.347026D-04    0.186372D-03    0.694760D-01    0.526815D+00
   0    58    0.741675D-05    0.476258D-04    0.139645D-01    0.526818D+00
   0    59    0.160927D-05    0.119903D-04    0.291785D-02    0.526819D+00
   0    60    0.352655D-06    0.298979D-05    0.685498D-03    0.526819D+00
   0    61    0.760754D-07    0.738951D-06    0.132685D-03    0.526819D+00
   0    62    0.163552D-07    0.181137D-06    0.265474D-04    0.526820D+00
   0    63    0.360456D-08    0.441514D-07    0.586029D-05    0.526820D+00
   0    64    0.796182D-09    0.107043D-07    0.142672D-05    0.526820D+00
   0    65    0.174119D-09    0.258628D-08    0.285068D-06    0.526820D+00
   0    66    0.368252D-10    0.622211D-09    0.696185D-07    0.526820D+00
   0    67    0.819445D-11    0.149313D-09    0.128126D-07    0.526820D+00
   0    68    0.175852D-11    0.357175D-10    0.309206D-08    0.526820D+00
   0    69    0.383227D-12    0.852543D-11    0.677486D-09    0.526820D+00
   0    70    0.841469D-13    0.203048D-11    0.144041D-09    0.526820D+00
   0    71    0.183489D-13    0.482527D-12    0.298935D-10    0.526820D+00
   0    72    0.394419D-14    0.114420D-12    0.663079D-11    0.526820D+00
   0    73    0.848908D-15    0.270893D-13    0.131168D-11    0.526820D+00
   0    74    0.186621D-15    0.640359D-14    0.324925D-12    0.526820D+00
   0    75    0.405946D-16    0.151126D-14    0.759006D-13    0.526820D+00
   0    76    0.880730D-17    0.356266D-15    0.132145D-13    0.526820D+00
   0    77    0.194608D-17    0.838685D-16    0.378702D-14    0.526820D+00
   0    78    0.429385D-18    0.197206D-16    0.632474D-15    0.526820D+00
   0    79    0.938279D-19    0.463238D-17    0.148665D-15    0.526820D+00
   0    80    0.199237D-19    0.108665D-17    0.365199D-16    0.526820D+00
   0    81    0.432184D-20    0.254599D-18    0.760692D-17    0.526820D+00
   0    82    0.923866D-21    0.595862D-19    0.180791D-17    0.526820D+00
   0    83    0.200947D-21    0.139300D-19    0.303750D-18    0.526820D+00
   0    84    0.432963D-22    0.325202D-20    0.785078D-19    0.526820D+00
   0    85    0.946005D-23    0.758185D-21    0.178729D-19    0.526820D+00
   0    86    0.203348D-23    0.176522D-21    0.373665D-20    0.526820D+00
   0    87    0.433078D-24    0.410277D-22    0.874844D-21    0.526820D+00
   0    88    0.940206D-25    0.951702D-23    0.168632D-21    0.526820D+00
   0    89    0.203518D-25    0.220318D-23    0.385721D-22    0.526820D+00
   0    90    0.430768D-26    0.508836D-24    0.755336D-23    0.526820D+00
   0    91    0.895488D-27    0.117226D-24    0.161654D-23    0.526820D+00
   0    92    0.192221D-27    0.269305D-25    0.365429D-24    0.526820D+00
   0    93    0.411725D-28    0.616820D-26    0.760613D-25    0.526820D+00
   0    94    0.864639D-29    0.140806D-26    0.176907D-25    0.526820D+00
   0    95    0.182524D-29    0.320293D-27    0.369827D-26    0.526820D+00
   0    96    0.378187D-30    0.725791D-28    0.640696D-27    0.526820D+00
   0    97    0.787505D-31    0.163785D-28    0.155545D-27    0.526820D+00
   0    98    0.161895D-31    0.367996D-29    0.330062D-28    0.526820D+00
   0    99    0.333153D-32    0.823015D-30    0.585240D-29    0.526820D+00
   0   100    0.684766D-33    0.183176D-30    0.129775D-29    0.526820D+00
   0   101    0.140174D-33    0.405644D-31    0.271011D-30    0.526820D+00
   0   102    0.278569D-34    0.893536D-32    0.532031D-31    0.526820D+00
   0   103    0.557453D-35    0.195743D-32    0.114881D-31    0.526820D+00
   0   104    0.110030D-35    0.426361D-33    0.201818D-32    0.526820D+00
   0   105    0.215009D-36    0.923237D-34    0.400064D-33    0.526820D+00
   0   106    0.417585D-37    0.198716D-34    0.913234D-34    0.526820D+00
   0   107    0.819263D-38    0.425079D-35    0.143699D-34    0.526820D+00
   0   108    0.158323D-38    0.903564D-36    0.353444D-35    0.526820D+00
   0   109    0.297179D-39    0.190832D-36    0.695771D-36    0.526820D+00
   0   110    0.563335D-40    0.400407D-37    0.123814D-36    0.526820D+00
   0   111    0.106970D-40    0.834572D-38    0.214508D-37    0.526820D+00
   0   112    0.200065D-41    0.172777D-38    0.417544D-38    0.526820D+00
   0   113    0.373902D-42    0.355256D-39    0.804284D-39    0.526820D+00
   0   114    0.674783D-43    0.725420D-40    0.158307D-39    0.526820D+00
   0   115    0.124061D-43    0.147098D-40    0.291916D-40    0.526820D+00
   0   116    0.229556D-44    0.296187D-41    0.542318D-41    0.526820D+00
   0   117    0.419178D-45    0.592150D-42    0.102417D-41    0.526820D+00
   0   118    0.731767D-46    0.117541D-42    0.160891D-42    0.526820D+00
   0   119    0.130463D-46    0.231646D-43    0.274721D-43    0.526820D+00
   0   120    0.231927D-47    0.453236D-44    0.566851D-44    0.526820D+00
   0   121    0.400492D-48    0.880383D-45    0.960054D-45    0.526820D+00
   0   122    0.694600D-49    0.169768D-45    0.153107D-45    0.526820D+00
   0   123    0.118655D-49    0.324990D-46    0.285302D-46    0.526820D+00
   0   124    0.206484D-50    0.617603D-47    0.475621D-47    0.526820D+00
   0   125    0.349802D-51    0.116511D-47    0.930265D-48    0.526820D+00
   0   126    0.584198D-52    0.218190D-48    0.152043D-48    0.526820D+00
   0   127    0.967535D-53    0.405621D-49    0.259355D-49    0.526820D+00
   0   128    0.156655D-53    0.748549D-50    0.395677D-50    0.526820D+00
   0   129    0.252269D-54    0.137131D-50    0.706387D-51    0.526820D+00
   0   130    0.413389D-55    0.249386D-51    0.112768D-51    0.526820D+00
   0   131    0.667005D-56    0.450225D-52    0.161579D-52    0.526820D+00
   0   132    0.107704D-56    0.806888D-53    0.287112D-53    0.526820D+00
   0   133    0.171395D-57    0.143559D-53    0.434696D-54    0.526820D+00
   0   134    0.267598D-58    0.253561D-54    0.773703D-55    0.526820D+00
   0   135    0.420524D-59    0.444613D-55    0.124730D-55    0.526820D+00
   0   136    0.653747D-60    0.773986D-56    0.193392D-56    0.526820D+00
   0   137    0.100995D-60    0.133766D-56    0.278866D-57    0.526820D+00
   0   138    0.154787D-61    0.229523D-57    0.461571D-58    0.526820D+00
   0   139    0.232916D-62    0.391008D-58    0.619000D-59    0.526820D+00
   0   140    0.353139D-63    0.661353D-59    0.108305D-59    0.526820D+00
   0   141    0.527680D-64    0.111066D-59    0.155768D-60    0.526820D+00
   0   142    0.774352D-65    0.185197D-60    0.222811D-61    0.526820D+00
   0   143    0.115209D-65    0.306624D-61    0.324228D-62    0.526820D+00
   0   144    0.165411D-66    0.504091D-62    0.492387D-63    0.526820D+00
   0   145    0.238429D-67    0.822911D-63    0.710300D-64    0.526820D+00
   0   146    0.341785D-68    0.133398D-63    0.113019D-64    0.526820D+00
   0   147    0.487129D-69    0.214739D-64    0.162125D-65    0.526820D+00
   0   148    0.692542D-70    0.343279D-65    0.214189D-66    0.526820D+00
   0   149    0.975764D-71    0.544970D-66    0.314337D-67    0.526820D+00
   0   150    0.136847D-71    0.859207D-67    0.428726D-68    0.526820D+00
   0   151    0.190597D-72    0.134535D-67    0.629033D-69    0.526820D+00
   0   152    0.260429D-73    0.209216D-68    0.856077D-70    0.526820D+00
   0   153    0.358697D-74    0.323142D-69    0.109778D-70    0.526820D+00
   0   154    0.479397D-75    0.495723D-70    0.166440D-71    0.526820D+00
   0   155    0.648997D-76    0.755347D-71    0.230381D-72    0.526820D+00
   0   156    0.873354D-77    0.114321D-71    0.308777D-73    0.526820D+00
   0   157    0.113964D-77    0.171867D-72    0.369905D-74    0.526820D+00
   0   158    0.150525D-78    0.256660D-73    0.497335D-75    0.526820D+00
   0   159    0.195719D-79    0.380744D-74    0.673296D-76    0.526820D+00
   0   160    0.253602D-80    0.561088D-75    0.862548D-77    0.526820D+00
   0   161    0.329871D-81    0.821418D-76    0.107802D-77    0.526820D+00
   0   162    0.425538D-82    0.119466D-76    0.141351D-78    0.526820D+00
   0   163    0.544800D-83    0.172618D-77    0.179325D-79    0.526820D+00
   0   164    0.683868D-84    0.247798D-78    0.254736D-80    0.526820D+00
   0   165    0.864662D-85    0.353422D-79    0.324691D-81    0.526820D+00
   0   166    0.108856D-85    0.500826D-80    0.413923D-82    0.526820D+00
   0   167    0.135935D-86    0.705161D-81    0.523553D-83    0.526820D+00
   0   168    0.169875D-87    0.986529D-82    0.646080D-84    0.526820D+00
   0   169    0.206847D-88    0.137140D-82    0.807540D-85    0.526820D+00
   0   170    0.247472D-89    0.189437D-83    0.101682D-85    0.526820D+00
   0   171    0.300455D-90    0.260028D-84    0.110566D-86    0.526820D+00
   0   172    0.365433D-91    0.354686D-85    0.145668D-87    0.526820D+00
   0   173    0.440000D-92    0.480782D-86    0.163433D-88    0.526820D+00
   0   174    0.522580D-93    0.647657D-87    0.203251D-89    0.526820D+00
   0   175    0.616622D-94    0.867053D-88    0.258537D-90    0.526820D+00
   0   176    0.729281D-95    0.115362D-88    0.272513D-91    0.526820D+00
   0   177    0.851178D-96    0.152548D-89    0.350661D-92    0.526820D+00
   0   178    0.980068D-97    0.200488D-90    0.425056D-93    0.526820D+00
   0   179    0.113288D-97    0.261890D-91    0.427828D-94    0.526820D+00
   0   180    0.130011D-98    0.340027D-92    0.556651D-95    0.526820D+00
   0   181    0.144834D-99    0.438813D-93    0.586759D-96    0.526820D+00
   0   182    0.165867-100    0.562900D-94    0.648560D-97    0.526820D+00
   0   183    0.184565-101    0.717757D-95    0.739235D-98    0.526820D+00
   0   184    0.205406-102    0.909767D-96    0.837871D-99    0.526820D+00
   0   185    0.227909-103    0.114631D-96    0.957093-100    0.526820D+00
   0   186    0.254508-104    0.143582D-97    0.100728-100    0.526820D+00
   0   187    0.278930-105    0.178789D-98    0.118528-101    0.526820D+00
   0   188    0.302722-106    0.221324D-99    0.129369-102    0.526820D+00
   0   189    0.329224-107    0.272383-100    0.141713-103    0.526820D+00
   0   190    0.353831-108    0.333275-101    0.156528-104    0.526820D+00
   0   191    0.375741-109    0.405423-102    0.159333-105    0.526820D+00
   0   192    0.396787-110    0.490352-103    0.173317-106    0.526820D+00
   0   193    0.417803-111    0.589672-104    0.182553-107    0.526820D+00
   0   194    0.438252-112    0.705062-105    0.189920-108    0.526820D+00
   0   195    0.461689-113    0.838240-106    0.203383-109    0.526820D+00
   0   196    0.481217-114    0.990934-107    0.220492-110    0.526820D+00
   0   197    0.497641-115    0.116484-107    0.231171-111    0.526820D+00
   0   198    0.513890-116    0.136158-108    0.240886-112    0.526820D+00
   0   199    0.523822-117    0.158265-109    0.239956-113    0.526820D+00
   0   200    0.538477-118    0.182937-110    0.238469-114    0.526820D+00
   0   201    0.534248-119    0.210282-111    0.258150-115    0.526820D+00
   0   202    0.537734-120    0.240381-112    0.265994-116    0.526820D+00
   0   203    0.548214-121    0.273276-113    0.246032-117    0.526820D+00
   0   204    0.548193-122    0.308971-114    0.250878-118    0.526820D+00
   0   205    0.538062-123    0.347422-115    0.270037-119    0.526820D+00
   0   206    0.525926-124    0.388535-116    0.270470-120    0.526820D+00
   0   207    0.515975-125    0.432162-117    0.256025-121    0.526820D+00
   0   208    0.498919-126    0.478096-118    0.250173-122    0.526820D+00
   0   209    0.476860-127    0.526072-119    0.253017-123    0.526820D+00
   0   210    0.455303-128    0.575767-120    0.228607-124    0.526820D+00
   0   211    0.438720-129    0.626799-121    0.210214-125    0.526820D+00
   0   212    0.415588-130    0.678732-122    0.221444-126    0.526820D+00
   0   213    0.391214-131    0.731084-123    0.193668-127    0.526820D+00
   0   214    0.369652-132    0.783327-124    0.182701-128    0.526820D+00
   0   215    0.343446-133    0.834902-125    0.176441-129    0.526820D+00
   0   216    0.319902-134    0.885222-126    0.168541-130    0.526820D+00
   0   217    0.296611-135    0.933690-127    0.158385-131    0.526820D+00
   0   218    0.272736-136    0.979706-128    0.139840-132    0.526820D+00
   0   219    0.249576-137    0.102268-128    0.136685-133    0.526820D+00
   0   220    0.227376-138    0.106204-129    0.121874-134    0.526820D+00
   0   221    0.208787-139    0.109727-130    0.112584-135    0.526820D+00
   0   222    0.187845-140    0.112788-131    0.100977-136    0.526820D+00
   0   223    0.168837-141    0.115344-132    0.927027-138    0.526820D+00
   0   224    0.150534-142    0.117360-133    0.841251-139    0.526820D+00
   0   225    0.135524-143    0.118808-134    0.726504-140    0.526820D+00
   0   226    0.119139-144    0.119669-135    0.676036-141    0.526820D+00
   0   227    0.104967-145    0.119932-136    0.604609-142    0.526820D+00
   0   228    0.907552-147    0.119595-137    0.495787-143    0.526820D+00
   0   229    0.786982-148    0.118666-138    0.468650-144    0.526820D+00
   0   230    0.689839-149    0.117160-139    0.389463-145    0.526820D+00
   0   231    0.592390-150    0.115102-140    0.338822-146    0.526820D+00
   0   232    0.511548-151    0.112523-141    0.281606-147    0.526820D+00
   0   233    0.431292-152    0.109463-142    0.256179-148    0.526820D+00
   0   234    0.366671-153    0.105965-143    0.204945-149    0.526820D+00
   0   235    0.305881-154    0.102080-144    0.191540-150    0.526820D+00
   0   236    0.259557-155    0.978601-146    0.153073-151    0.526820D+00
   0   237    0.218758-156    0.933609-147    0.132973-152    0.526820D+00
   0   238    0.182316-157    0.886394-148    0.110369-153    0.526820D+00
   0   239    0.152230-158    0.837526-149    0.916122-155    0.526820D+00
   0   240    0.126870-159    0.787565-150    0.771680-156    0.526820D+00
   0   241    0.104134-160    0.737054-151    0.647517-157    0.526820D+00
   0   242    0.841220-162    0.686505-152    0.529797-158    0.526820D+00
   0   243    0.681283-163    0.636395-153    0.415378-159    0.526820D+00
   0   244    0.556606-164    0.587159-154    0.328929-160    0.526820D+00
   0   245    0.444997-165    0.539184-155    0.272746-161    0.526820D+00
   0   246    0.356665-166    0.492809-156    0.214673-162    0.526820D+00
   0   247    0.285128-167    0.448319-157    0.180743-163    0.526820D+00
   0   248    0.228328-168    0.405946-158    0.140890-164    0.526820D+00
   0   249    0.179501-169    0.365873-159    0.119537-165    0.526820D+00
   0   250    0.140534-170    0.328231-160    0.874819-167    0.526820D+00
   0   251    0.110656-171    0.293105-161    0.718709-168    0.526820D+00
   0   252    0.860203-173    0.260536-162    0.567367-169    0.526820D+00
   0   253    0.670146-174    0.230525-163    0.427904-170    0.526820D+00
   0   254    0.517712-175    0.203041-164    0.347007-171    0.526820D+00
   0   255    0.397145-176    0.178020-165    0.268898-172    0.526820D+00
   0   256    0.303057-177    0.155375-166    0.201504-173    0.526820D+00
   0   257    0.229387-178    0.134997-167    0.154590-174    0.526820D+00
   0   258    0.173699-179    0.116764-168    0.117548-175    0.526820D+00
   0   259    0.131261-180    0.100541-169    0.903864-177    0.526820D+00
   0   260    0.975875-182    0.861836-171    0.653149-178    0.526820D+00
   0   261    0.732243-183    0.735472-172    0.485524-179    0.526820D+00
   0   262    0.549709-184    0.624845-173    0.360725-180    0.526820D+00
   0   263    0.408160-185    0.528506-174    0.289106-181    0.526820D+00
   0   264    0.299765-186    0.445045-175    0.210992-182    0.526820D+00
   0   265    0.219403-187    0.373114-176    0.149810-183    0.526820D+00
   0   266    0.159286-188    0.311435-177    0.108745-184    0.526820D+00
   0   267    0.116181-189    0.258815-178    0.822237-186    0.526820D+00
   0   268    0.849040-191    0.214147-179    0.606255-187    0.526820D+00
   0   269    0.608002-192    0.176417-180    0.429729-188    0.526820D+00
   0   270    0.437951-193    0.144705-181    0.306806-189    0.526820D+00
   0   271    0.312083-194    0.118180-182    0.223054-190    0.526820D+00
   0   272    0.223600-195    0.961010-184    0.154147-191    0.526820D+00
   0   273    0.159674-196    0.778113-185    0.115147-192    0.526820D+00
   0   274    0.113182-197    0.627326-186    0.784379-194    0.526820D+00
   0   275    0.793762-199    0.503599-187    0.562486-195    0.526820D+00
   0   276    0.556639-200    0.402554-188    0.399969-196    0.526820D+00
   0   277    0.393117-201    0.320417-189    0.293596-197    0.526820D+00
   0   278    0.270821-202    0.253960-190    0.200088-198    0.526820D+00
   0   279    0.188781-203    0.200437-191    0.136348-199    0.526820D+00
   0   280    0.129099-204    0.157529-192    0.995327-201    0.526820D+00
   0   281    0.889816-206    0.123287-193    0.673374-202    0.526820D+00
   0   282    0.602075-207    0.960848-195    0.456153-203    0.526820D+00
   0   283    0.407623-208    0.745722-196    0.317844-204    0.526820D+00
   0   284    0.275335-209    0.576354-197    0.213837-205    0.526820D+00
   0   285    0.184677-210    0.443606-198    0.141930-206    0.526820D+00
   0   286    0.124411-211    0.340022-199    0.935298-208    0.526820D+00
   0   287    0.824675-213    0.259550-200    0.622179-209    0.526820D+00
   0   288    0.547636-214    0.197310-201    0.427022-210    0.526820D+00
   0   289    0.366338-215    0.149380-202    0.291129-211    0.526820D+00
   0   290    0.241982-216    0.112631-203    0.190719-212    0.526820D+00
   0   291    0.158984-217    0.845761-205    0.124882-213    0.526820D+00
   0   292    0.103060-218    0.632515-206    0.796614-215    0.526820D+00
   0   293    0.667067-220    0.471119-207    0.542617-216    0.526820D+00
   0   294    0.435911-221    0.349488-208    0.347788-217    0.526820D+00
   0   295    0.281862-222    0.258214-209    0.225065-218    0.526820D+00
   0   296    0.181524-223    0.190011-210    0.150512-219    0.526820D+00
   0   297    0.115218-224    0.139263-211    0.918081-221    0.526820D+00
   0   298    0.739496-226    0.101660-212    0.604247-222    0.526820D+00
   0   299    0.469068-227    0.739152-214    0.384111-223    0.526820D+00
   0   300    0.302128-228    0.535287-215    0.242241-224    0.526820D+00
   0   301    0.189661-229    0.386114-216    0.159126-225    0.526820D+00
   0   302    0.120523-230    0.277411-217    0.956711-227    0.526820D+00
   0   303    0.753431-232    0.198526-218    0.613501-228    0.526820D+00
   0   304    0.471436-233    0.141514-219    0.398390-229    0.526820D+00
   0   305    0.291531-234    0.100479-220    0.251610-230    0.526820D+00
   0   306    0.179742-235    0.710643-222    0.147727-231    0.526820D+00
   0   307    0.109398-236    0.500645-223    0.941197-233    0.526820D+00
   0   308    0.668638-238    0.351331-224    0.575859-234    0.526820D+00
   0   309    0.408350-239    0.245592-225    0.357897-235    0.526820D+00
   0   310    0.250795-240    0.171013-226    0.209048-236    0.526820D+00
   0   311    0.153485-241    0.118622-227    0.131840-237    0.526820D+00
   0   312    0.934295-243    0.819645-229    0.795966-239    0.526820D+00
   0   313    0.565718-244    0.564178-230    0.493430-240    0.526820D+00
   0   314    0.340638-245    0.386849-231    0.296012-241    0.526820D+00
   0   315    0.202015-246    0.264244-232    0.182721-242    0.526820D+00
   0   316    0.119904-247    0.179809-233    0.102495-243    0.526820D+00
   0   317    0.711506-249    0.121889-234    0.605622-245    0.526820D+00
   0   318    0.422463-250    0.823129-236    0.364745-246    0.526820D+00
   0   319    0.247242-251    0.553768-237    0.217401-247    0.526820D+00
   0   320    0.146155-252    0.371148-238    0.128514-248    0.526820D+00
   0   321    0.849030-254    0.247816-239    0.787610-250    0.526820D+00
   0   322    0.494102-255    0.164847-240    0.444267-251    0.526820D+00
   0   323    0.287938-256    0.109246-241    0.262481-252    0.526820D+00
   0   324    0.165718-257    0.721278-243    0.154257-253    0.526820D+00
   0   325    0.951197-259    0.474440-244    0.876411-255    0.526820D+00
   0   326    0.546864-260    0.310917-245    0.499204-256    0.526820D+00
   0   327    0.312828-261    0.203000-246    0.280338-257    0.526820D+00
   0   328    0.177820-262    0.132050-247    0.159978-258    0.526820D+00
   0   329    0.100768-263    0.855813-249    0.916679-260    0.526820D+00
   0   330    0.568628-265    0.552610-250    0.529832-261    0.526820D+00
   0   331    0.317424-266    0.355518-251    0.299210-262    0.526820D+00
   0   332    0.178142-267    0.227883-252    0.168742-263    0.526820D+00
   0   333    0.990678-269    0.145538-253    0.919101-265    0.526820D+00
   0   334    0.548272-270    0.926091-255    0.511730-266    0.526820D+00
   0   335    0.301322-271    0.587153-256    0.285292-267    0.526820D+00
   0   336    0.166509-272    0.370912-257    0.158687-268    0.526820D+00
   0   337    0.917826-274    0.233463-258    0.850861-270    0.526820D+00
   0   338    0.507390-275    0.146419-259    0.491325-271    0.526820D+00
   0   339    0.277131-276    0.914973-261    0.266616-272    0.526820D+00
   0   340    0.153059-277    0.569716-262    0.144989-273    0.526820D+00
   0   341    0.825719-279    0.353468-263    0.825149-275    0.526820D+00
   0   342    0.447417-280    0.218518-264    0.424747-276    0.526820D+00
   0   343    0.239571-281    0.134608-265    0.241528-277    0.526820D+00
   0   344    0.129109-282    0.826247-267    0.124165-278    0.526820D+00
   0   345    0.688855-284    0.505364-268    0.664525-280    0.526820D+00
   0   346    0.367879-285    0.308005-269    0.362964-281    0.526820D+00
   0   347    0.195175-286    0.187057-270    0.198961-282    0.526820D+00
   0   348    0.103440-287    0.113203-271    0.103404-283    0.526820D+00
   0   349    0.549054-289    0.682672-273    0.540337-285    0.526820D+00
   0   350    0.289955-290    0.410242-274    0.295060-286    0.526820D+00
   0   351    0.150446-291    0.245666-275    0.152936-287    0.526820D+00
   0   352    0.790321-293    0.146598-276    0.813777-289    0.526820D+00
   0   353    0.406694-294    0.871763-278    0.416037-290    0.526820D+00
   0   354    0.210575-295    0.516600-279    0.220916-291    0.526820D+00
   0   355    0.108931-296    0.305072-280    0.109601-292    0.526820D+00
   0   356    0.567301-298    0.179533-281    0.576529-294    0.526820D+00
   0   357    0.289741-299    0.105289-282    0.304569-295    0.526820D+00
   0   358    0.148291-300    0.615348-284    0.154282-296    0.526820D+00
   0   359    0.756939-302    0.358397-285    0.794790-298    0.526820D+00
   0   360    0.383478-303    0.208025-286    0.400289-299    0.526820D+00
   0   361    0.194388-304    0.120331-287    0.200431-300    0.526820D+00
   0   362    0.986905-306    0.693668-289    0.100826-301    0.526820D+00
   0   363    0.494679-307    0.398514-290    0.526666-303    0.526820D+00
   0   364    0.245821-308    0.228169-291    0.262180-304    0.526820D+00
   0   365    0.122701-309    0.130194-292    0.133322-305    0.526820D+00
   0   366    0.609760-311    0.740379-294    0.666966-307    0.526820D+00
   0   367    0.299424-312    0.419611-295    0.325681-308    0.526820D+00
   0   368    0.148036-313    0.237013-296    0.155238-309    0.526820D+00
   0   369    0.720422-315    0.133424-297    0.771945-311    0.526820D+00
   0   370    0.353580-316    0.748570-299    0.392993-312    0.526820D+00
   0   371    0.172211-317    0.418576-300    0.189711-313    0.526820D+00
   0   372    0.847026-319    0.233272-301    0.948606-315    0.526820D+00
   0   373    0.383889-320    0.129568-302    0.484184-316    0.526820D+00
   0   374    0.000000D+00    0.717273-304    0.000000D+00    0.526820D+00
   0   375    0.000000D+00    0.395755-305    0.000000D+00    0.526820D+00
   0   376    0.000000D+00    0.217633-306    0.000000D+00    0.526820D+00
   0   377    0.000000D+00    0.119284-307    0.000000D+00    0.526820D+00
   0   378    0.000000D+00    0.651637-309    0.000000D+00    0.526820D+00
   0   379    0.000000D+00    0.354808-310    0.000000D+00    0.526820D+00
   0   380    0.000000D+00    0.192553-311    0.000000D+00    0.526820D+00
   0   381    0.000000D+00    0.104155-312    0.000000D+00    0.526820D+00
   0   382    0.000000D+00    0.561545-314    0.000000D+00    0.526820D+00
   0   383    0.000000D+00    0.301763-315    0.000000D+00    0.526820D+00
   0   384    0.000000D+00    0.161633-316    0.000000D+00    0.526820D+00
   0   385    0.000000D+00    0.862930-318    0.000000D+00    0.526820D+00
   0   386    0.000000D+00    0.459185-319    0.000000D+00    0.526820D+00
   0   387    0.000000D+00    0.242586-320    0.000000D+00    0.526820D+00
   0   388    0.000000D+00    0.123516-321    0.000000D+00    0.526820D+00
   0   389    0.000000D+00    0.000000D+00    0.000000D+00    0.526820D+00
   0   390    0.000000D+00    0.000000D+00    0.000000D+00    0.526820D+00
   0   391    0.000000D+00    0.000000D+00    0.000000D+00    0.526820D+00
   0   392    0.000000D+00    0.000000D+00    0.000000D+00    0.526820D+00
   0   393    0.000000D+00    0.000000D+00    0.000000D+00    0.526820D+00
   0   394    0.000000D+00    0.000000D+00    0.000000D+00    0.526820D+00
   0   395    0.000000D+00    0.000000D+00    0.000000D+00    0.526820D+00
   0   396    0.000000D+00    0.000000D+00    0.000000D+00    0.526820D+00
   0   397    0.000000D+00    0.000000D+00    0.000000D+00    0.526820D+00