variables =  "IG"  "JG"  "PHI"  "Temp."  "Latent_heat"  "mm"
ZONE  I=  401  J=  101
   0     0    0.100000D+01    0.320489D+00    0.000000D+00    0.514544D+00
   0     1    0.100000D+01    0.320489D+00    0.000000D+00    0.514544D+00
   0     2    0.100000D+01    0.322047D+00    0.000000D+00    0.514461D+00
   0     3    0.100000D+01    0.325131D+00    0.000000D+00    0.514295D+00
   0     4    0.100000D+01    0.329679D+00    0.000000D+00    0.514049D+00
   0     5    0.100000D+01    0.335602D+00    0.000000D+00    0.513724D+00
   0     6    0.100000D+01    0.342785D+00    0.000000D+00    0.513324D+00
   0     7    0.100000D+01    0.351090D+00    0.000000D+00    0.512852D+00
   0     8    0.100000D+01    0.360363D+00    0.000000D+00    0.512313D+00
   0     9    0.100000D+01    0.370439D+00    0.000000D+00    0.511712D+00
   0    10    0.100000D+01    0.381142D+00    0.000000D+00    0.511057D+00
   0    11    0.100000D+01    0.392296D+00    0.000000D+00    0.510355D+00
   0    12    0.100000D+01    0.403726D+00    0.000000D+00    0.509613D+00
   0    13    0.100000D+01    0.415264D+00    0.000000D+00    0.508841D+00
   0    14    0.100000D+01    0.426751D+00    0.000000D+00    0.508047D+00
   0    15    0.100000D+01    0.438044D+00    0.000000D+00    0.507242D+00
   0    16    0.100000D+01    0.449014D+00    0.000000D+00    0.506435D+00
   0    17    0.100000D+01    0.459551D+00    0.000000D+00    0.505635D+00
   0    18    0.100000D+01    0.469565D+00    0.000000D+00    0.504852D+00
   0    19    0.100000D+01    0.478984D+00    0.000000D+00    0.504095D+00
   0    20    0.100000D+01    0.487757D+00    0.000000D+00    0.503369D+00
   0    21    0.100000D+01    0.495849D+00    0.000000D+00    0.502683D+00
   0    22    0.100000D+01    0.503244D+00    0.000000D+00    0.502040D+00
   0    23    0.100000D+01    0.509941D+00    0.000000D+00    0.501446D+00
   0    24    0.100000D+01    0.515952D+00    0.000000D+00    0.500901D+00
   0    25    0.100000D+01    0.521299D+00    0.000000D+00    0.500408D+00
   0    26    0.100000D+01    0.526017D+00    0.000000D+00    0.499966D+00
   0    27    0.100000D+01    0.530142D+00    0.000000D+00    0.499574D+00
   0    28    0.100000D+01    0.533721D+00    0.000000D+00    0.499230D+00
   0    29    0.100000D+01    0.536799D+00    0.000000D+00    0.498931D+00
   0    30    0.100000D+01    0.539425D+00    0.000000D+00    0.498673D+00
   0    31    0.100000D+01    0.541648D+00    0.000000D+00    0.498453D+00
   0    32    0.100000D+01    0.543514D+00    0.000000D+00    0.498267D+00
   0    33    0.100000D+01    0.545068D+00    0.000000D+00    0.498111D+00
   0    34    0.100000D+01    0.546353D+00    0.000000D+00    0.497982D+00
   0    35    0.100000D+01    0.547406D+00    0.000000D+00    0.497875D+00
   0    36    0.100000D+01    0.548262D+00    0.000000D+00    0.497789D+00
   0    37    0.100000D+01    0.548954D+00    0.000000D+00    0.497718D+00
   0    38    0.100000D+01    0.549508D+00    0.000000D+00    0.497662D+00
   0    39    0.100000D+01    0.549948D+00    0.000000D+00    0.497617D+00
   0    40    0.100000D+01    0.550296D+00    0.000000D+00    0.497582D+00
   0    41    0.100000D+01    0.550569D+00    0.000000D+00    0.497554D+00
   0    42    0.100000D+01    0.550781D+00    0.000000D+00    0.497532D+00
   0    43    0.100000D+01    0.550945D+00    0.000000D+00    0.497515D+00
   0    44    0.100000D+01    0.551072D+00    0.000000D+00    0.497502D+00
   0    45    0.100000D+01    0.551168D+00    0.000000D+00    0.497492D+00
   0    46    0.100000D+01    0.551242D+00    0.000000D+00    0.497485D+00
   0    47    0.100000D+01    0.551298D+00    0.000000D+00    0.497479D+00
   0    48    0.100000D+01    0.551342D+00    0.000000D+00    0.497475D+00
   0    49    0.100000D+01    0.551375D+00    0.000000D+00    0.497471D+00
   0    50    0.100000D+01    0.551400D+00    0.000000D+00    0.497469D+00
   0    51    0.100000D+01    0.551420D+00    0.000000D+00    0.497466D+00
   0    52    0.100000D+01    0.551436D+00    0.000000D+00    0.497465D+00
   0    53    0.100000D+01    0.551449D+00    0.000000D+00    0.497463D+00
   0    54    0.100000D+01    0.551460D+00    0.000000D+00    0.497462D+00
   0    55    0.100000D+01    0.551469D+00    0.000000D+00    0.497461D+00
   0    56    0.100000D+01    0.551477D+00    0.000000D+00    0.497461D+00
   0    57    0.100000D+01    0.551484D+00    0.000000D+00    0.497460D+00
   0    58    0.100000D+01    0.551490D+00    0.000000D+00    0.497459D+00
   0    59    0.100000D+01    0.551494D+00    0.000000D+00    0.497459D+00
   0    60    0.100000D+01    0.551498D+00    0.000000D+00    0.497458D+00
   0    61    0.100000D+01    0.551501D+00    0.000000D+00    0.497458D+00
   0    62    0.100000D+01    0.551503D+00    0.000000D+00    0.497458D+00
   0    63    0.100000D+01    0.551504D+00    0.000000D+00    0.497458D+00
   0    64    0.100000D+01    0.551504D+00    0.000000D+00    0.497458D+00
   0    65    0.100000D+01    0.551503D+00    0.000000D+00    0.497458D+00
   0    66    0.100000D+01    0.551501D+00    0.000000D+00    0.497458D+00
   0    67    0.100000D+01    0.551499D+00    0.000000D+00    0.497458D+00
   0    68    0.100000D+01    0.551496D+00    0.000000D+00    0.497459D+00
   0    69    0.100000D+01    0.551492D+00    0.000000D+00    0.497459D+00
   0    70    0.100000D+01    0.551488D+00    0.000000D+00    0.497460D+00
   0    71    0.100000D+01    0.551483D+00    0.000000D+00    0.497460D+00
   0    72    0.100000D+01    0.551478D+00    0.000000D+00    0.497461D+00
   0    73    0.100000D+01    0.551472D+00    0.000000D+00    0.497461D+00
   0    74    0.100000D+01    0.551466D+00    0.000000D+00    0.497462D+00
   0    75    0.100000D+01    0.551458D+00    0.000000D+00    0.497463D+00
   0    76    0.100000D+01    0.551449D+00    0.000000D+00    0.497464D+00
   0    77    0.100000D+01    0.551438D+00    0.000000D+00    0.497465D+00
   0    78    0.100000D+01    0.551424D+00    0.000000D+00    0.497466D+00
   0    79    0.100000D+01    0.551409D+00    0.000000D+00    0.497468D+00
   0    80    0.100000D+01    0.551391D+00    0.000000D+00    0.497470D+00
   0    81    0.100000D+01    0.551371D+00    0.000000D+00    0.497472D+00
   0    82    0.100000D+01    0.551348D+00    0.000000D+00    0.497474D+00
   0    83    0.100000D+01    0.551324D+00    0.000000D+00    0.497476D+00
   0    84    0.100000D+01    0.551300D+00    0.000000D+00    0.497479D+00
   0    85    0.100000D+01    0.551275D+00    0.000000D+00    0.497481D+00
   0    86    0.100000D+01    0.551252D+00    0.000000D+00    0.497484D+00
   0    87    0.100000D+01    0.551231D+00    0.000000D+00    0.497486D+00
   0    88    0.100000D+01    0.551212D+00    0.000000D+00    0.497488D+00
   0    89    0.100000D+01    0.551197D+00    0.000000D+00    0.497489D+00
   0    90    0.100000D+01    0.551183D+00    0.000000D+00    0.497491D+00
   0    91    0.100000D+01    0.551172D+00    0.000000D+00    0.497492D+00
   0    92    0.100000D+01    0.551160D+00    0.000000D+00    0.497493D+00
   0    93    0.100000D+01    0.551148D+00    0.613030D-11    0.497494D+00
   0    94    0.100000D+01    0.551133D+00    0.183909D-10    0.497496D+00
   0    95    0.100000D+01    0.551118D+00    0.116476D-09    0.497498D+00
   0    96    0.100000D+01    0.551104D+00    0.668203D-09    0.497499D+00
   0    97    0.100000D+01    0.551095D+00    0.411343D-08    0.497500D+00
   0    98    0.100000D+01    0.551096D+00    0.238898D-07    0.497500D+00
   0    99    0.100000D+01    0.551110D+00    0.147213D-06    0.497498D+00
   0   100    0.100000D+01    0.551138D+00    0.808249D-06    0.497495D+00
   0   101    0.100000D+01    0.551179D+00    0.507050D-05    0.497491D+00
   0   102    0.100000D+01    0.551223D+00    0.315736D-04    0.497487D+00
   0   103    0.100000D+01    0.551257D+00    0.142017D-03    0.497483D+00
   0   104    0.100000D+01    0.551261D+00    0.901081D-03    0.497483D+00
   0   105    0.999997D+00    0.551220D+00    0.537717D-02    0.497487D+00
   0   106    0.999983D+00    0.551121D+00    0.354518D-01    0.497497D+00
   0   107    0.999900D+00    0.550943D+00    0.203476D+00    0.497516D+00
   0   108    0.999408D+00    0.550611D+00    0.110779D+01    0.497550D+00
   0   109    0.996520D+00    0.549664D+00    0.720866D+01    0.497651D+00
   0   110    0.980240D+00    0.545993D+00    0.374807D+02    0.498038D+00
   0   111    0.889561D+00    0.525841D+00    0.191610D+03    0.500041D+00
   0   112    0.493789D+00    0.387129D+00    0.588637D+03    0.510971D+00
   0   113    0.141194D+00    0.173267D+00    0.255455D+03    0.521321D+00
   0   114    0.319502D-01    0.597954D-01    0.513964D+02    0.525122D+00
   0   115    0.687672D-02    0.181733D-01    0.120374D+02    0.526324D+00
   0   116    0.150728D-02    0.516414D-02    0.247656D+01    0.526680D+00
   0   117    0.325699D-03    0.140251D-02    0.666354D+00    0.526782D+00
   0   118    0.712761D-04    0.369594D-03    0.122236D+00    0.526810D+00
   0   119    0.157210D-04    0.951995D-04    0.267674D-01    0.526817D+00
   0   120    0.340130D-05    0.241176D-04    0.512267D-02    0.526819D+00
   0   121    0.731218D-06    0.604677D-05    0.144979D-02    0.526819D+00
   0   122    0.158375D-06    0.150129D-05    0.258316D-03    0.526819D+00
   0   123    0.347894D-07    0.369714D-06    0.624749D-04    0.526819D+00
   0   124    0.751508D-08    0.904160D-07    0.152505D-04    0.526820D+00
   0   125    0.163047D-08    0.219655D-07    0.278242D-05    0.526820D+00
   0   126    0.349384D-09    0.531068D-08    0.607645D-06    0.526820D+00
   0   127    0.756599D-10    0.127927D-08    0.139806D-06    0.526820D+00
   0   128    0.164304D-10    0.307171D-09    0.281482D-07    0.526820D+00
   0   129    0.359750D-11    0.734732D-10    0.693755D-08    0.526820D+00
   0   130    0.772618D-12    0.175414D-10    0.143137D-08    0.526820D+00
   0   131    0.166346D-12    0.417808D-11    0.271880D-09    0.526820D+00
   0   132    0.363992D-13    0.993768D-12    0.659120D-10    0.526820D+00
   0   133    0.789753D-14    0.235840D-12    0.134744D-10    0.526820D+00
   0   134    0.172005D-14    0.558762D-13    0.263234D-11    0.526820D+00
   0   135    0.372345D-15    0.132222D-13    0.664576D-12    0.526820D+00
   0   136    0.802305D-16    0.312274D-14    0.136288D-12    0.526820D+00
   0   137    0.176953D-16    0.736483D-15    0.261013D-13    0.526820D+00
   0   138    0.379982D-17    0.173474D-15    0.611856D-14    0.526820D+00
   0   139    0.804587D-18    0.408151D-16    0.163395D-14    0.526820D+00
   0   140    0.180105D-18    0.959229D-17    0.321686D-15    0.526820D+00
   0   141    0.386516D-19    0.225238D-17    0.708900D-16    0.526820D+00
   0   142    0.848330D-20    0.528392D-18    0.141214D-16    0.526820D+00
   0   143    0.186233D-20    0.123855D-18    0.268406D-17    0.526820D+00
   0   144    0.393939D-21    0.290076D-19    0.646931D-18    0.526820D+00
   0   145    0.864002D-22    0.678971D-20    0.132385D-18    0.526820D+00
   0   146    0.184252D-22    0.158826D-20    0.371118D-19    0.526820D+00
   0   147    0.401591D-23    0.371315D-21    0.691274D-20    0.526820D+00
   0   148    0.868346D-24    0.867713D-22    0.179002D-20    0.526820D+00
   0   149    0.189297D-24    0.202694D-22    0.331202D-21    0.526820D+00
   0   150    0.411692D-25    0.473258D-23    0.844761D-22    0.526820D+00
   0   151    0.885457D-26    0.110444D-23    0.173565D-22    0.526820D+00
   0   152    0.191421D-26    0.257676D-24    0.348785D-23    0.526820D+00
   0   153    0.420028D-27    0.601109D-25    0.667188D-24    0.526820D+00
   0   154    0.920941D-28    0.140184D-25    0.135045D-24    0.526820D+00
   0   155    0.198573D-28    0.326843D-26    0.392444D-25    0.526820D+00
   0   156    0.434883D-29    0.761992D-27    0.717143D-26    0.526820D+00
   0   157    0.934447D-30    0.177609D-27    0.187371D-26    0.526820D+00
   0   158    0.200477D-30    0.413943D-28    0.411383D-27    0.526820D+00
   0   159    0.438283D-31    0.964654D-29    0.710716D-28    0.526820D+00
   0   160    0.958595D-32    0.224799D-29    0.147804D-28    0.526820D+00
   0   161    0.210327D-32    0.523805D-30    0.420135D-29    0.526820D+00
   0   162    0.456787D-33    0.122046D-30    0.859799D-30    0.526820D+00
   0   163    0.986919D-34    0.284344D-31    0.157157D-30    0.526820D+00
   0   164    0.213390D-34    0.662417D-32    0.430981D-31    0.526820D+00
   0   165    0.466112D-35    0.154305D-32    0.938523D-32    0.526820D+00
   0   166    0.100391D-35    0.359413D-33    0.201210D-32    0.526820D+00
   0   167    0.219605D-36    0.837081D-34    0.379597D-33    0.526820D+00
   0   168    0.476875D-37    0.194951D-34    0.819003D-34    0.526820D+00
   0   169    0.102953D-37    0.454001D-35    0.188511D-34    0.526820D+00
   0   170    0.226319D-38    0.105720D-35    0.373816D-35    0.526820D+00
   0   171    0.487215D-39    0.246167D-36    0.999298D-36    0.526820D+00
   0   172    0.106663D-39    0.573187D-37    0.157519D-36    0.526820D+00
   0   173    0.229941D-40    0.133456D-37    0.399679D-37    0.526820D+00
   0   174    0.498835D-41    0.310722D-38    0.100452D-37    0.526820D+00
   0   175    0.107087D-41    0.723445D-39    0.178644D-38    0.526820D+00
   0   176    0.229758D-42    0.168431D-39    0.428036D-39    0.526820D+00
   0   177    0.508972D-43    0.392136D-40    0.749606D-40    0.526820D+00
   0   178    0.111592D-43    0.912964D-41    0.172752D-40    0.526820D+00
   0   179    0.245624D-44    0.212559D-41    0.465827D-41    0.526820D+00
   0   180    0.526425D-45    0.494881D-42    0.108034D-41    0.526820D+00
   0   181    0.115146D-45    0.115218D-42    0.226804D-42    0.526820D+00
   0   182    0.252709D-46    0.268253D-43    0.447596D-43    0.526820D+00
   0   183    0.540322D-47    0.624567D-44    0.912913D-44    0.526820D+00
   0   184    0.116983D-47    0.145419D-44    0.183272D-44    0.526820D+00
   0   185    0.253685D-48    0.338588D-45    0.511072D-45    0.526820D+00
   0   186    0.553927D-49    0.788370D-46    0.107462D-45    0.526820D+00
   0   187    0.121725D-49    0.183568D-46    0.224542D-46    0.526820D+00
   0   188    0.263651D-50    0.427440D-47    0.532489D-47    0.526820D+00
   0   189    0.568931D-51    0.995319D-48    0.100220D-47    0.526820D+00
   0   190    0.124814D-51    0.231771D-48    0.212913D-48    0.526820D+00
   0   191    0.271785D-52    0.539706D-49    0.466374D-49    0.526820D+00
   0   192    0.590271D-53    0.125680D-49    0.117657D-49    0.526820D+00
   0   193    0.129967D-53    0.292673D-50    0.195811D-50    0.526820D+00
   0   194    0.288387D-54    0.681561D-51    0.491580D-51    0.526820D+00
   0   195    0.624275D-55    0.158720D-51    0.123205D-51    0.526820D+00
   0   196    0.134732D-55    0.369624D-52    0.276356D-52    0.526820D+00
   0   197    0.291682D-56    0.860775D-53    0.512951D-53    0.526820D+00
   0   198    0.633154D-57    0.200457D-53    0.102429D-53    0.526820D+00
   0   199    0.136221D-57    0.466820D-54    0.266116D-54    0.526820D+00
   0   200    0.299145D-58    0.108711D-54    0.536636D-55    0.526820D+00
   0   201    0.657412D-59    0.253158D-55    0.116315D-55    0.526820D+00
   0   202    0.141074D-59    0.589516D-56    0.278181D-56    0.526820D+00
   0   203    0.309005D-60    0.137272D-56    0.460570D-57    0.526820D+00
   0   204    0.677535D-61    0.319629D-57    0.108231D-57    0.526820D+00
   0   205    0.147599D-61    0.744189D-58    0.257471D-58    0.526820D+00
   0   206    0.323146D-62    0.173255D-58    0.619573D-59    0.526820D+00
   0   207    0.696989D-63    0.403313D-59    0.105021D-59    0.526820D+00
   0   208    0.149507D-63    0.938740D-60    0.251319D-60    0.526820D+00
   0   209    0.328186D-64    0.218467D-60    0.653661D-61    0.526820D+00
   0   210    0.701651D-65    0.508335D-61    0.116012D-61    0.526820D+00
   0   211    0.152521D-65    0.118257D-61    0.265633D-62    0.526820D+00
   0   212    0.333031D-66    0.275042D-62    0.665038D-63    0.526820D+00
   0   213    0.705845D-67    0.639519D-63    0.143929D-63    0.526820D+00
   0   214    0.154559D-67    0.148653D-63    0.263194D-64    0.526820D+00
   0   215    0.334676D-68    0.345412D-64    0.652593D-65    0.526820D+00
   0   216    0.724871D-69    0.802284D-65    0.125613D-65    0.526820D+00
   0   217    0.156004D-69    0.186262D-65    0.266633D-66    0.526820D+00
   0   218    0.336377D-70    0.432217D-66    0.549478D-67    0.526820D+00
   0   219    0.721557D-71    0.100239D-66    0.142868D-67    0.526820D+00
   0   220    0.154188D-71    0.232332D-67    0.250695D-68    0.526820D+00
   0   221    0.331061D-72    0.538130D-68    0.537854D-69    0.526820D+00
   0   222    0.700350D-73    0.124551D-68    0.116332D-69    0.526820D+00
   0   223    0.149522D-73    0.288043D-69    0.250137D-70    0.526820D+00
   0   224    0.319320D-74    0.665567D-70    0.613822D-71    0.526820D+00
   0   225    0.673594D-75    0.153646D-70    0.108026D-71    0.526820D+00
   0   226    0.144207D-75    0.354334D-71    0.235277D-72    0.526820D+00
   0   227    0.303639D-76    0.816277D-72    0.639256D-73    0.526820D+00
   0   228    0.644266D-77    0.187830D-72    0.118012D-73    0.526820D+00
   0   229    0.136187D-77    0.431678D-73    0.253343D-74    0.526820D+00
   0   230    0.287097D-78    0.990818D-74    0.469631D-75    0.526820D+00
   0   231    0.590619D-79    0.227109D-74    0.999494D-76    0.526820D+00
   0   232    0.125809D-79    0.519815D-75    0.217573D-76    0.526820D+00
   0   233    0.264314D-80    0.118797D-75    0.439417D-77    0.526820D+00
   0   234    0.541746D-81    0.271067D-76    0.104286D-77    0.526820D+00
   0   235    0.111811D-81    0.617487D-77    0.209352D-78    0.526820D+00
   0   236    0.233591D-82    0.140420D-77    0.403742D-79    0.526820D+00
   0   237    0.488504D-83    0.318751D-78    0.102349D-79    0.526820D+00
   0   238    0.100108D-83    0.722214D-79    0.201413D-80    0.526820D+00
   0   239    0.206760D-84    0.163321D-79    0.387658D-81    0.526820D+00
   0   240    0.422848D-85    0.368600D-80    0.905978D-82    0.526820D+00
   0   241    0.867213D-86    0.830187D-81    0.145911D-82    0.526820D+00
   0   242    0.171792D-86    0.186586D-81    0.318241D-83    0.526820D+00
   0   243    0.349064D-87    0.418445D-82    0.728653D-84    0.526820D+00
   0   244    0.702756D-88    0.936332D-83    0.158735D-84    0.526820D+00
   0   245    0.142800D-88    0.209040D-83    0.278599D-85    0.526820D+00
   0   246    0.288635D-89    0.465604D-84    0.633355D-86    0.526820D+00
   0   247    0.571523D-90    0.103459D-84    0.101266D-86    0.526820D+00
   0   248    0.114332D-90    0.229330D-85    0.236741D-87    0.526820D+00
   0   249    0.231255D-91    0.507082D-86    0.446044D-88    0.526820D+00
   0   250    0.460164D-92    0.111841D-86    0.791516D-89    0.526820D+00
   0   251    0.906439D-93    0.246041D-87    0.160205D-89    0.526820D+00
   0   252    0.181542D-93    0.539864D-88    0.374514D-90    0.526820D+00
   0   253    0.354039D-94    0.118144D-88    0.669608D-91    0.526820D+00
   0   254    0.691916D-95    0.257857D-89    0.146854D-91    0.526820D+00
   0   255    0.134096D-95    0.561264D-90    0.275580D-92    0.526820D+00
   0   256    0.265490D-96    0.121832D-90    0.580241D-93    0.526820D+00
   0   257    0.517011D-97    0.263726D-91    0.117495D-93    0.526820D+00
   0   258    0.100978D-97    0.569280D-92    0.210423D-94    0.526820D+00
   0   259    0.198409D-98    0.122537D-92    0.431053D-95    0.526820D+00
   0   260    0.377510D-99    0.263009D-93    0.793636D-96    0.526820D+00
   0   261    0.734452-100    0.562888D-94    0.158475D-96    0.526820D+00
   0   262    0.139219-100    0.120119D-94    0.265317D-97    0.526820D+00
   0   263    0.261874-101    0.255582D-95    0.586567D-98    0.526820D+00
   0   264    0.499943-102    0.542214D-96    0.105712D-98    0.526820D+00
   0   265    0.952258-103    0.114689D-96    0.183646D-99    0.526820D+00
   0   266    0.182697-103    0.241870D-97    0.339992-100    0.526820D+00
   0   267    0.348295-104    0.508555D-98    0.783265-101    0.526820D+00
   0   268    0.649169-105    0.106607D-98    0.130427-101    0.526820D+00
   0   269    0.121921-105    0.222802D-99    0.258982-102    0.526820D+00
   0   270    0.226715-106    0.464230-100    0.489292-103    0.526820D+00
   0   271    0.418379-107    0.964321-101    0.868495-104    0.526820D+00
   0   272    0.779727-108    0.199701-101    0.167479-104    0.526820D+00
   0   273    0.145525-108    0.412290-102    0.290275-105    0.526820D+00
   0   274    0.268223-109    0.848569-103    0.598578-106    0.526820D+00
   0   275    0.483804-110    0.174112-103    0.105946-106    0.526820D+00
   0   276    0.870211-111    0.356144-104    0.212519-107    0.526820D+00
   0   277    0.160506-111    0.726226-105    0.340774-108    0.526820D+00
   0   278    0.286814-112    0.147627-105    0.623713-109    0.526820D+00
   0   279    0.514608-113    0.299163-106    0.117981-109    0.526820D+00
   0   280    0.932504-114    0.604354-107    0.218086-110    0.526820D+00
   0   281    0.168590-114    0.121707-107    0.407333-111    0.526820D+00
   0   282    0.301957-115    0.244332-108    0.663889-112    0.526820D+00
   0   283    0.532552-116    0.488971-109    0.117458-112    0.526820D+00
   0   284    0.951622-117    0.975487-110    0.219394-113    0.526820D+00
   0   285    0.169019-117    0.193997-110    0.412047-114    0.526820D+00
   0   286    0.302585-118    0.384596-111    0.654747-115    0.526820D+00
   0   287    0.518247-119    0.760059-112    0.130992-115    0.526820D+00
   0   288    0.898290-120    0.149735-112    0.216063-116    0.526820D+00
   0   289    0.158943-120    0.294057-113    0.379796-117    0.526820D+00
   0   290    0.279169-121    0.575669-114    0.588049-118    0.526820D+00
   0   291    0.480691-122    0.112343-114    0.111415-118    0.526820D+00
   0   292    0.840039-123    0.218551-115    0.209731-119    0.526820D+00
   0   293    0.145553-123    0.423829-116    0.380236-120    0.526820D+00
   0   294    0.250499-124    0.819336-117    0.583535-121    0.526820D+00
   0   295    0.420714-125    0.157894-117    0.111965-121    0.526820D+00
   0   296    0.725100-126    0.303323-118    0.162449-122    0.526820D+00
   0   297    0.124420-126    0.580870-119    0.322356-123    0.526820D+00
   0   298    0.205892-127    0.110889-119    0.580288-124    0.526820D+00
   0   299    0.340885-128    0.211024-120    0.805637-125    0.526820D+00
   0   300    0.569156-129    0.400327-121    0.150030-125    0.526820D+00
   0   301    0.949005-130    0.757068-122    0.238029-126    0.526820D+00
   0   302    0.161209-130    0.142723-122    0.361032-127    0.526820D+00
   0   303    0.268536-131    0.268222-123    0.746017-128    0.526820D+00
   0   304    0.453427-132    0.502500-124    0.117680-128    0.526820D+00
   0   305    0.752660-133    0.938471-125    0.206031-129    0.526820D+00
   0   306    0.127941-133    0.174723-125    0.339280-130    0.526820D+00
   0   307    0.205220-134    0.324284-126    0.563503-131    0.526820D+00
   0   308    0.334819-135    0.599997-127    0.797346-132    0.526820D+00
   0   309    0.558363-136    0.110668-127    0.127652-132    0.526820D+00
   0   310    0.895868-137    0.203491-128    0.221113-133    0.526820D+00
   0   311    0.146569-137    0.373010-129    0.357036-134    0.526820D+00
   0   312    0.241039-138    0.681632-130    0.640530-135    0.526820D+00
   0   313    0.388190-139    0.124176-130    0.102882-135    0.526820D+00
   0   314    0.619972-140    0.225517-131    0.155622-136    0.526820D+00
   0   315    0.100269-140    0.408304-132    0.256539-137    0.526820D+00
   0   316    0.157364-141    0.736970-133    0.442475-138    0.526820D+00
   0   317    0.247323-142    0.132611-133    0.633409-139    0.526820D+00
   0   318    0.397940-143    0.237889-134    0.971354-140    0.526820D+00
   0   319    0.628871-144    0.425439-135    0.188122-140    0.526820D+00
   0   320    0.996897-145    0.758525-136    0.252205-141    0.526820D+00
   0   321    0.156215-145    0.134826-136    0.429763-142    0.526820D+00
   0   322    0.244927-146    0.238921-137    0.693914-143    0.526820D+00
   0   323    0.382994-147    0.422094-138    0.998099-144    0.526820D+00
   0   324    0.594015-148    0.743434-139    0.182108-144    0.526820D+00
   0   325    0.916603-149    0.130544-139    0.251060-145    0.526820D+00
   0   326    0.144501-149    0.228535-140    0.354537-146    0.526820D+00
   0   327    0.223215-150    0.398874-141    0.662024-147    0.526820D+00
   0   328    0.337405-151    0.694072-142    0.969520-148    0.526820D+00
   0   329    0.520073-152    0.120410-142    0.160784-148    0.526820D+00
   0   330    0.790471-153    0.208264-143    0.231046-149    0.526820D+00
   0   331    0.118959-153    0.359137-144    0.324120-150    0.526820D+00
   0   332    0.183083-154    0.617450-145    0.499786-151    0.526820D+00
   0   333    0.277826-155    0.105838-145    0.813571-152    0.526820D+00
   0   334    0.422823-156    0.180877-146    0.120042-152    0.526820D+00
   0   335    0.637022-157    0.308198-147    0.184880-153    0.526820D+00
   0   336    0.947960-158    0.523577-148    0.260214-154    0.526820D+00
   0   337    0.141335-158    0.886830-149    0.385899-155    0.526820D+00
   0   338    0.209518-159    0.149765-149    0.665166-156    0.526820D+00
   0   339    0.316513-160    0.252171-150    0.929040-157    0.526820D+00
   0   340    0.468622-161    0.423345-151    0.135276-157    0.526820D+00
   0   341    0.694745-162    0.708617-152    0.200410-158    0.526820D+00
   0   342    0.102428-162    0.118263-152    0.297167-159    0.526820D+00
   0   343    0.151017-163    0.196793-153    0.434016-160    0.526820D+00
   0   344    0.217888-164    0.326509-154    0.703462-161    0.526820D+00
   0   345    0.315262-165    0.540144-155    0.103894-161    0.526820D+00
   0   346    0.458538-166    0.890949-156    0.130685-162    0.526820D+00
   0   347    0.668665-167    0.146531-156    0.185924-163    0.526820D+00
   0   348    0.969715-168    0.240293-157    0.315832-164    0.526820D+00
   0   349    0.138792-168    0.392907-158    0.457461-165    0.526820D+00
   0   350    0.198243-169    0.640588-159    0.637624-166    0.526820D+00
   0   351    0.288724-170    0.104138-159    0.882500-167    0.526820D+00
   0   352    0.412707-171    0.168805-160    0.124165-167    0.526820D+00
   0   353    0.583580-172    0.272841-161    0.185446-168    0.526820D+00
   0   354    0.842974-173    0.439727-162    0.266405-169    0.526820D+00
   0   355    0.120880-173    0.706657-163    0.400330-170    0.526820D+00
   0   356    0.168799-174    0.113237-163    0.518318-171    0.526820D+00
   0   357    0.238072-175    0.180937-164    0.802128-172    0.526820D+00
   0   358    0.339596-176    0.288286-165    0.111198-172    0.526820D+00
   0   359    0.472802-177    0.458018-166    0.154984-173    0.526820D+00
   0   360    0.655701-178    0.725614-167    0.217083-174    0.526820D+00
   0   361    0.909740-179    0.114629-167    0.270671-175    0.526820D+00
   0   362    0.126739-179    0.180574-168    0.417093-176    0.526820D+00
   0   363    0.177400-180    0.283653-169    0.555024-177    0.526820D+00
   0   364    0.244717-181    0.444318-170    0.780729-178    0.526820D+00
   0   365    0.338730-182    0.694027-171    0.105176-178    0.526820D+00
   0   366    0.466437-183    0.108103-171    0.144038-179    0.526820D+00
   0   367    0.640719-184    0.167912-172    0.212918-180    0.526820D+00
   0   368    0.875844-185    0.260081-173    0.310037-181    0.526820D+00
   0   369    0.118740-185    0.401719-174    0.397335-182    0.526820D+00
   0   370    0.164713-186    0.618763-175    0.537787-183    0.526820D+00
   0   371    0.226486-187    0.950426-176    0.793109-184    0.526820D+00
   0   372    0.299357-188    0.145581-176    0.107794-184    0.526820D+00
   0   373    0.399471-189    0.222377-177    0.134915-185    0.526820D+00
   0   374    0.538911-190    0.338743-178    0.194635-186    0.526820D+00
   0   375    0.707948-191    0.514580-179    0.237729-187    0.526820D+00
   0   376    0.955954-192    0.779541-180    0.327682-188    0.526820D+00
   0   377    0.124757-192    0.117769-180    0.442950-189    0.526820D+00
   0   378    0.166449-193    0.177431-181    0.574759-190    0.526820D+00
   0   379    0.220130-194    0.266587-182    0.801563-191    0.526820D+00
   0   380    0.289727-195    0.399449-183    0.106563-191    0.526820D+00
   0   381    0.385252-196    0.596896-184    0.131815-192    0.526820D+00
   0   382    0.505910-197    0.889516-185    0.174632-193    0.526820D+00
   0   383    0.660761-198    0.132199-185    0.240593-194    0.526820D+00
   0   384    0.850063-199    0.195941-186    0.290659-195    0.526820D+00
   0   385    0.111251-199    0.289631-187    0.374493-196    0.526820D+00
   0   386    0.145137-200    0.426966-188    0.475950-197    0.526820D+00
   0   387    0.187238-201    0.627726-189    0.620653-198    0.526820D+00
   0   388    0.242350-202    0.920403-190    0.893392-199    0.526820D+00
   0   389    0.313015-203    0.134592-190    0.116103-199    0.526820D+00
   0   390    0.401698-204    0.196290-191    0.152092-200    0.526820D+00
   0   391    0.503750-205    0.285505-192    0.173718-201    0.526820D+00
   0   392    0.646528-206    0.414162-193    0.241829-202    0.526820D+00
   0   393    0.830449-207    0.599197-194    0.286211-203    0.526820D+00
   0   394    0.104994-207    0.864599-195    0.388863-204    0.526820D+00
   0   395    0.133116-208    0.124425-195    0.513200-205    0.526820D+00
   0   396    0.168304-209    0.178586-196    0.648446-206    0.526820D+00
   0   397    0.209871-210    0.255646-197    0.805457-207    0.526820D+00