variables =  "IG"  "JG"  "PHI"  "Temp."  "Latent_heat"  "mm"
ZONE  I=  401  J=  101
   0     0    0.100000D+01    0.296804D+00    0.000000D+00    0.515770D+00
   0     1    0.100000D+01    0.296804D+00    0.000000D+00    0.515770D+00
   0     2    0.100000D+01    0.298842D+00    0.000000D+00    0.515667D+00
   0     3    0.100000D+01    0.302868D+00    0.000000D+00    0.515463D+00
   0     4    0.100000D+01    0.308789D+00    0.000000D+00    0.515158D+00
   0     5    0.100000D+01    0.316464D+00    0.000000D+00    0.514757D+00
   0     6    0.100000D+01    0.325717D+00    0.000000D+00    0.514264D+00
   0     7    0.100000D+01    0.336342D+00    0.000000D+00    0.513683D+00
   0     8    0.100000D+01    0.348107D+00    0.000000D+00    0.513022D+00
   0     9    0.100000D+01    0.360767D+00    0.000000D+00    0.512289D+00
   0    10    0.100000D+01    0.374069D+00    0.000000D+00    0.511492D+00
   0    11    0.100000D+01    0.387762D+00    0.000000D+00    0.510643D+00
   0    12    0.100000D+01    0.401606D+00    0.000000D+00    0.509752D+00
   0    13    0.100000D+01    0.415374D+00    0.000000D+00    0.508833D+00
   0    14    0.100000D+01    0.428862D+00    0.000000D+00    0.507899D+00
   0    15    0.100000D+01    0.441892D+00    0.000000D+00    0.506962D+00
   0    16    0.100000D+01    0.454313D+00    0.000000D+00    0.506036D+00
   0    17    0.100000D+01    0.466005D+00    0.000000D+00    0.505133D+00
   0    18    0.100000D+01    0.476881D+00    0.000000D+00    0.504265D+00
   0    19    0.100000D+01    0.486878D+00    0.000000D+00    0.503443D+00
   0    20    0.100000D+01    0.495966D+00    0.000000D+00    0.502673D+00
   0    21    0.100000D+01    0.504136D+00    0.000000D+00    0.501962D+00
   0    22    0.100000D+01    0.511402D+00    0.000000D+00    0.501314D+00
   0    23    0.100000D+01    0.517797D+00    0.000000D+00    0.500732D+00
   0    24    0.100000D+01    0.523367D+00    0.000000D+00    0.500215D+00
   0    25    0.100000D+01    0.528170D+00    0.000000D+00    0.499762D+00
   0    26    0.100000D+01    0.532268D+00    0.000000D+00    0.499370D+00
   0    27    0.100000D+01    0.535732D+00    0.000000D+00    0.499035D+00
   0    28    0.100000D+01    0.538629D+00    0.000000D+00    0.498751D+00
   0    29    0.100000D+01    0.541030D+00    0.000000D+00    0.498514D+00
   0    30    0.100000D+01    0.543000D+00    0.000000D+00    0.498318D+00
   0    31    0.100000D+01    0.544600D+00    0.000000D+00    0.498158D+00
   0    32    0.100000D+01    0.545888D+00    0.000000D+00    0.498029D+00
   0    33    0.100000D+01    0.546914D+00    0.000000D+00    0.497925D+00
   0    34    0.100000D+01    0.547724D+00    0.000000D+00    0.497843D+00
   0    35    0.100000D+01    0.548356D+00    0.000000D+00    0.497779D+00
   0    36    0.100000D+01    0.548846D+00    0.000000D+00    0.497729D+00
   0    37    0.100000D+01    0.549221D+00    0.000000D+00    0.497691D+00
   0    38    0.100000D+01    0.549505D+00    0.000000D+00    0.497662D+00
   0    39    0.100000D+01    0.549717D+00    0.000000D+00    0.497641D+00
   0    40    0.100000D+01    0.549875D+00    0.000000D+00    0.497625D+00
   0    41    0.100000D+01    0.549990D+00    0.000000D+00    0.497613D+00
   0    42    0.100000D+01    0.550073D+00    0.000000D+00    0.497604D+00
   0    43    0.100000D+01    0.550132D+00    0.000000D+00    0.497598D+00
   0    44    0.100000D+01    0.550174D+00    0.000000D+00    0.497594D+00
   0    45    0.100000D+01    0.550203D+00    0.000000D+00    0.497591D+00
   0    46    0.100000D+01    0.550223D+00    0.000000D+00    0.497589D+00
   0    47    0.100000D+01    0.550236D+00    0.000000D+00    0.497588D+00
   0    48    0.100000D+01    0.550246D+00    0.000000D+00    0.497587D+00
   0    49    0.100000D+01    0.550253D+00    0.000000D+00    0.497586D+00
   0    50    0.100000D+01    0.550258D+00    0.000000D+00    0.497586D+00
   0    51    0.100000D+01    0.550262D+00    0.000000D+00    0.497585D+00
   0    52    0.100000D+01    0.550266D+00    0.000000D+00    0.497585D+00
   0    53    0.100000D+01    0.550270D+00    0.000000D+00    0.497584D+00
   0    54    0.100000D+01    0.550273D+00    0.000000D+00    0.497584D+00
   0    55    0.100000D+01    0.550275D+00    0.000000D+00    0.497584D+00
   0    56    0.100000D+01    0.550277D+00    0.000000D+00    0.497584D+00
   0    57    0.100000D+01    0.550279D+00    0.000000D+00    0.497583D+00
   0    58    0.100000D+01    0.550279D+00    0.000000D+00    0.497583D+00
   0    59    0.100000D+01    0.550278D+00    0.000000D+00    0.497584D+00
   0    60    0.100000D+01    0.550275D+00    0.000000D+00    0.497584D+00
   0    61    0.100000D+01    0.550271D+00    0.000000D+00    0.497584D+00
   0    62    0.100000D+01    0.550265D+00    0.000000D+00    0.497585D+00
   0    63    0.100000D+01    0.550257D+00    0.000000D+00    0.497586D+00
   0    64    0.100000D+01    0.550247D+00    0.000000D+00    0.497587D+00
   0    65    0.100000D+01    0.550235D+00    0.000000D+00    0.497588D+00
   0    66    0.100000D+01    0.550223D+00    0.000000D+00    0.497589D+00
   0    67    0.100000D+01    0.550210D+00    0.000000D+00    0.497591D+00
   0    68    0.100000D+01    0.550196D+00    0.000000D+00    0.497592D+00
   0    69    0.100000D+01    0.550183D+00    0.000000D+00    0.497593D+00
   0    70    0.100000D+01    0.550170D+00    0.000000D+00    0.497595D+00
   0    71    0.100000D+01    0.550157D+00    0.000000D+00    0.497596D+00
   0    72    0.100000D+01    0.550146D+00    0.000000D+00    0.497597D+00
   0    73    0.100000D+01    0.550136D+00    0.613030D-11    0.497598D+00
   0    74    0.100000D+01    0.550126D+00    0.490424D-10    0.497599D+00
   0    75    0.100000D+01    0.550116D+00    0.294254D-09    0.497600D+00
   0    76    0.100000D+01    0.550102D+00    0.171035D-08    0.497602D+00
   0    77    0.100000D+01    0.550082D+00    0.903606D-08    0.497604D+00
   0    78    0.100000D+01    0.550055D+00    0.624861D-07    0.497606D+00
   0    79    0.100000D+01    0.550019D+00    0.318696D-06    0.497610D+00
   0    80    0.100000D+01    0.549977D+00    0.184920D-05    0.497614D+00
   0    81    0.100000D+01    0.549932D+00    0.138152D-04    0.497619D+00
   0    82    0.100000D+01    0.549883D+00    0.792584D-04    0.497624D+00
   0    83    0.100000D+01    0.549825D+00    0.478398D-03    0.497630D+00
   0    84    0.999999D+00    0.549752D+00    0.290602D-02    0.497637D+00
   0    85    0.999993D+00    0.549666D+00    0.136424D-01    0.497646D+00
   0    86    0.999956D+00    0.549574D+00    0.880060D-01    0.497655D+00
   0    87    0.999745D+00    0.549442D+00    0.448055D+00    0.497669D+00
   0    88    0.998496D+00    0.549010D+00    0.249584D+01    0.497714D+00
   0    89    0.991056D+00    0.546818D+00    0.151034D+02    0.497942D+00
   0    90    0.947248D+00    0.534214D+00    0.104065D+03    0.499218D+00
   0    91    0.720503D+00    0.479335D+00    0.535246D+03    0.504374D+00
   0    92    0.260679D+00    0.260623D+00    0.351789D+03    0.517713D+00
   0    93    0.626886D-01    0.986916D-01    0.105590D+03    0.523914D+00
   0    94    0.139935D-01    0.314358D-01    0.213207D+02    0.525950D+00
   0    95    0.307911D-02    0.921478D-02    0.505741D+01    0.526570D+00
   0    96    0.672782D-03    0.254651D-02    0.117172D+01    0.526751D+00
   0    97    0.146854D-03    0.681090D-03    0.226491D+00    0.526801D+00
   0    98    0.310847D-04    0.177678D-03    0.500041D-01    0.526815D+00
   0    99    0.676812D-05    0.453587D-04    0.122106D-01    0.526818D+00
   0   100    0.149498D-05    0.114119D-04    0.238588D-02    0.526819D+00
   0   101    0.327074D-06    0.284202D-05    0.638819D-03    0.526819D+00
   0   102    0.705474D-07    0.701169D-06    0.142437D-03    0.526819D+00
   0   103    0.151979D-07    0.171687D-06    0.313343D-04    0.526820D+00
   0   104    0.329738D-08    0.417139D-07    0.664123D-05    0.526820D+00
   0   105    0.716340D-09    0.100869D-07    0.115228D-05    0.526820D+00
   0   106    0.152733D-09    0.242717D-08    0.270241D-06    0.526820D+00
   0   107    0.330762D-10    0.582115D-09    0.638494D-07    0.526820D+00
   0   108    0.715845D-11    0.139201D-09    0.111698D-07    0.526820D+00
   0   109    0.153982D-11    0.332063D-10    0.270813D-08    0.526820D+00
   0   110    0.330023D-12    0.790385D-11    0.657488D-09    0.526820D+00
   0   111    0.718658D-13    0.187821D-11    0.115350D-09    0.526820D+00
   0   112    0.157094D-13    0.445697D-12    0.252736D-10    0.526820D+00
   0   113    0.344743D-14    0.105625D-12    0.620395D-11    0.526820D+00
   0   114    0.744571D-15    0.249999D-13    0.129334D-11    0.526820D+00
   0   115    0.163129D-15    0.591059D-14    0.298092D-12    0.526820D+00
   0   116    0.349257D-16    0.139564D-14    0.650511D-13    0.526820D+00
   0   117    0.773011D-17    0.329134D-15    0.131570D-13    0.526820D+00
   0   118    0.169998D-17    0.775415D-16    0.261410D-14    0.526820D+00
   0   119    0.371672D-18    0.182507D-16    0.670948D-15    0.526820D+00
   0   120    0.802293D-19    0.429157D-17    0.128818D-15    0.526820D+00
   0   121    0.175993D-19    0.100803D-17    0.301587D-16    0.526820D+00
   0   122    0.376217D-20    0.236551D-18    0.675836D-17    0.526820D+00
   0   123    0.819515D-21    0.554798D-19    0.137697D-17    0.526820D+00
   0   124    0.174893D-21    0.130051D-19    0.323963D-18    0.526820D+00
   0   125    0.385172D-22    0.304617D-20    0.734646D-19    0.526820D+00
   0   126    0.845545D-23    0.713085D-21    0.124345D-19    0.526820D+00
   0   127    0.179791D-23    0.166817D-21    0.277435D-20    0.526820D+00
   0   128    0.393421D-24    0.390149D-22    0.661686D-21    0.526820D+00
   0   129    0.847385D-25    0.912196D-23    0.146965D-21    0.526820D+00
   0   130    0.186778D-25    0.213203D-23    0.288893D-22    0.526820D+00
   0   131    0.408363D-26    0.498163D-24    0.604709D-23    0.526820D+00
   0   132    0.880182D-27    0.116361D-24    0.149966D-23    0.526820D+00
   0   133    0.186690D-27    0.271725D-25    0.366959D-24    0.526820D+00
   0   134    0.405976D-28    0.634383D-26    0.748003D-25    0.526820D+00
   0   135    0.883639D-29    0.148052D-26    0.142526D-25    0.526820D+00
   0   136    0.193115D-29    0.345455D-27    0.333698D-26    0.526820D+00
   0   137    0.421744D-30    0.805929D-28    0.786057D-27    0.526820D+00
   0   138    0.935318D-31    0.187981D-28    0.153826D-27    0.526820D+00
   0   139    0.200852D-31    0.438393D-29    0.374627D-28    0.526820D+00
   0   140    0.433374D-32    0.102229D-29    0.858185D-29    0.526820D+00
   0   141    0.932392D-33    0.238344D-30    0.175354D-29    0.526820D+00
   0   142    0.201408D-33    0.555672D-31    0.313480D-30    0.526820D+00
   0   143    0.443622D-34    0.129539D-31    0.685733D-31    0.526820D+00
   0   144    0.975440D-35    0.301946D-32    0.177777D-31    0.526820D+00
   0   145    0.208454D-35    0.703809D-33    0.424137D-32    0.526820D+00
   0   146    0.458309D-36    0.164032D-33    0.723261D-33    0.526820D+00
   0   147    0.986771D-37    0.382279D-34    0.147841D-33    0.526820D+00
   0   148    0.217419D-37    0.890881D-35    0.371272D-34    0.526820D+00
   0   149    0.477475D-38    0.207605D-35    0.742148D-35    0.526820D+00
   0   150    0.105375D-38    0.483751D-36    0.183736D-35    0.526820D+00
   0   151    0.225947D-39    0.112715D-36    0.446810D-36    0.526820D+00
   0   152    0.481813D-40    0.262606D-37    0.779499D-37    0.526820D+00
   0   153    0.104977D-40    0.611789D-38    0.211470D-37    0.526820D+00
   0   154    0.224189D-41    0.142518D-38    0.463459D-38    0.526820D+00
   0   155    0.501337D-42    0.331991D-39    0.959770D-39    0.526820D+00
   0   156    0.111063D-42    0.773309D-40    0.175625D-39    0.526820D+00
   0   157    0.244466D-43    0.180119D-40    0.424441D-40    0.526820D+00
   0   158    0.523024D-44    0.419509D-41    0.107917D-40    0.526820D+00
   0   159    0.112890D-44    0.976989D-42    0.214373D-41    0.526820D+00
   0   160    0.247729D-45    0.227508D-42    0.407674D-42    0.526820D+00
   0   161    0.539982D-46    0.529742D-43    0.892903D-43    0.526820D+00
   0   162    0.116136D-46    0.123334D-43    0.202576D-43    0.526820D+00
   0   163    0.253326D-47    0.287107D-44    0.504400D-44    0.526820D+00
   0   164    0.549124D-48    0.668246D-45    0.101754D-44    0.526820D+00
   0   165    0.116644D-48    0.155508D-45    0.231748D-45    0.526820D+00
   0   166    0.254547D-49    0.361810D-46    0.476156D-46    0.526820D+00
   0   167    0.558228D-50    0.841588D-47    0.847034D-47    0.526820D+00
   0   168    0.120956D-50    0.195697D-47    0.225995D-47    0.526820D+00
   0   169    0.265340D-51    0.454907D-48    0.494299D-48    0.526820D+00
   0   170    0.578048D-52    0.105703D-48    0.103034D-48    0.526820D+00
   0   171    0.125687D-52    0.245500D-49    0.191891D-49    0.526820D+00
   0   172    0.268484D-53    0.569889D-50    0.431085D-50    0.526820D+00
   0   173    0.578479D-54    0.132214D-50    0.110792D-50    0.526820D+00
   0   174    0.124129D-54    0.306533D-51    0.218233D-51    0.526820D+00
   0   175    0.269855D-55    0.710162D-52    0.504561D-52    0.526820D+00
   0   176    0.573625D-56    0.164392D-52    0.107679D-52    0.526820D+00
   0   177    0.122770D-56    0.380203D-53    0.245786D-53    0.526820D+00
   0   178    0.263180D-57    0.878459D-54    0.517140D-54    0.526820D+00
   0   179    0.548448D-58    0.202749D-54    0.970874D-55    0.526820D+00
   0   180    0.116272D-58    0.467400D-55    0.181127D-55    0.526820D+00
   0   181    0.244459D-59    0.107614D-55    0.437085D-56    0.526820D+00
   0   182    0.513067D-60    0.247433D-56    0.881446D-57    0.526820D+00
   0   183    0.108355D-60    0.568082D-57    0.228532D-57    0.526820D+00
   0   184    0.230487D-61    0.130223D-57    0.397904D-58    0.526820D+00
   0   185    0.489595D-62    0.298016D-58    0.873823D-59    0.526820D+00
   0   186    0.103800D-62    0.680810D-59    0.182452D-59    0.526820D+00
   0   187    0.217588D-63    0.155239D-59    0.351970D-60    0.526820D+00
   0   188    0.449822D-64    0.353284D-60    0.747106D-61    0.526820D+00
   0   189    0.936559D-65    0.802326D-61    0.190703D-61    0.526820D+00
   0   190    0.191653D-65    0.181819D-61    0.337082D-62    0.526820D+00
   0   191    0.395352D-66    0.411102D-62    0.767634D-63    0.526820D+00
   0   192    0.808639D-67    0.927343D-63    0.164239D-63    0.526820D+00
   0   193    0.165614D-67    0.208677D-63    0.364153D-64    0.526820D+00
   0   194    0.339513D-68    0.468396D-64    0.715538D-65    0.526820D+00
   0   195    0.688212D-69    0.104863D-64    0.134176D-65    0.526820D+00
   0   196    0.140195D-69    0.234132D-65    0.267165D-66    0.526820D+00
   0   197    0.281715D-70    0.521315D-66    0.493731D-67    0.526820D+00
   0   198    0.566682D-71    0.115746D-66    0.105841D-67    0.526820D+00
   0   199    0.112547D-71    0.256242D-67    0.239821D-68    0.526820D+00
   0   200    0.226236D-72    0.565587D-68    0.447619D-69    0.526820D+00
   0   201    0.453400D-73    0.124459D-68    0.860336D-70    0.526820D+00
   0   202    0.906622D-74    0.273027D-69    0.173576D-70    0.526820D+00
   0   203    0.179916D-74    0.597051D-70    0.323665D-71    0.526820D+00
   0   204    0.351733D-75    0.130142D-70    0.791919D-72    0.526820D+00
   0   205    0.687079D-76    0.282752D-71    0.135837D-72    0.526820D+00
   0   206    0.131802D-76    0.612280D-72    0.248590D-73    0.526820D+00
   0   207    0.258069D-77    0.132139D-72    0.559065D-74    0.526820D+00
   0   208    0.499144D-78    0.284206D-73    0.928725D-75    0.526820D+00
   0   209    0.961895D-79    0.609167D-74    0.203672D-75    0.526820D+00
   0   210    0.184598D-79    0.130114D-74    0.356600D-76    0.526820D+00
   0   211    0.350256D-80    0.276936D-75    0.752417D-77    0.526820D+00
   0   212    0.668383D-81    0.587342D-76    0.139417D-77    0.526820D+00
   0   213    0.124791D-81    0.124120D-76    0.296447D-78    0.526820D+00
   0   214    0.237698D-82    0.261351D-77    0.438350D-79    0.526820D+00
   0   215    0.444427D-83    0.548307D-78    0.103869D-79    0.526820D+00
   0   216    0.842440D-84    0.114612D-78    0.162256D-80    0.526820D+00
   0   217    0.158815D-84    0.238689D-79    0.367528D-81    0.526820D+00
   0   218    0.297058D-85    0.495246D-80    0.720240D-82    0.526820D+00
   0   219    0.556691D-86    0.102374D-80    0.125128D-82    0.526820D+00
   0   220    0.102142D-86    0.210829D-81    0.257071D-83    0.526820D+00
   0   221    0.188480D-87    0.432550D-82    0.467217D-84    0.526820D+00
   0   222    0.339919D-88    0.884096D-83    0.867396D-85    0.526820D+00
   0   223    0.612362D-89    0.180018D-83    0.131689D-85    0.526820D+00
   0   224    0.112845D-89    0.365156D-84    0.259162D-86    0.526820D+00
   0   225    0.204361D-90    0.737877D-85    0.427266D-87    0.526820D+00
   0   226    0.366408D-91    0.148535D-85    0.849867D-88    0.526820D+00
   0   227    0.667425D-92    0.297856D-86    0.155792D-88    0.526820D+00
   0   228    0.117808D-92    0.594998D-87    0.269466D-89    0.526820D+00
   0   229    0.207418D-93    0.118401D-87    0.463747D-90    0.526820D+00
   0   230    0.370315D-94    0.234703D-88    0.953356D-91    0.526820D+00
   0   231    0.658997D-95    0.463453D-89    0.143291D-91    0.526820D+00
   0   232    0.115456D-95    0.911625D-90    0.302461D-92    0.526820D+00
   0   233    0.202733D-96    0.178627D-90    0.494627D-93    0.526820D+00
   0   234    0.353772D-97    0.348657D-91    0.916197D-94    0.526820D+00
   0   235    0.612586D-98    0.677904D-92    0.142722D-94    0.526820D+00
   0   236    0.105694D-98    0.131298D-92    0.252994D-95    0.526820D+00
   0   237    0.180518D-99    0.253317D-93    0.438148D-96    0.526820D+00
   0   238    0.303836-100    0.486842D-94    0.790265D-97    0.526820D+00
   0   239    0.519876-101    0.932034D-95    0.138826D-97    0.526820D+00
   0   240    0.888125-102    0.177744D-95    0.238497D-98    0.526820D+00
   0   241    0.148031-102    0.337658D-96    0.363098D-99    0.526820D+00
   0   242    0.251603-103    0.638969D-97    0.566701-100    0.526820D+00
   0   243    0.421231-104    0.120449D-97    0.109146-100    0.526820D+00
   0   244    0.701305-105    0.226178D-98    0.164162-101    0.526820D+00
   0   245    0.116072-105    0.423080D-99    0.265329-102    0.526820D+00
   0   246    0.188683-106    0.788352-100    0.544247-103    0.526820D+00
   0   247    0.311338-107    0.146334-100    0.818372-104    0.526820D+00
   0   248    0.512734-108    0.270582-101    0.131398-104    0.526820D+00
   0   249    0.840382-109    0.498408-102    0.205875-105    0.526820D+00
   0   250    0.134594-109    0.914542-103    0.372236-106    0.526820D+00
   0   251    0.223421-110    0.167170-103    0.622527-107    0.526820D+00
   0   252    0.362153-111    0.304405-104    0.904566-108    0.526820D+00
   0   253    0.574364-112    0.552184-105    0.160366-108    0.526820D+00
   0   254    0.929952-113    0.997837-106    0.237699-109    0.526820D+00
   0   255    0.149257-113    0.179631-106    0.426676-110    0.526820D+00
   0   256    0.236511-114    0.322144-107    0.654856-111    0.526820D+00
   0   257    0.373783-115    0.575533-108    0.100032-111    0.526820D+00
   0   258    0.601243-116    0.102434-108    0.156666-112    0.526820D+00
   0   259    0.937054-117    0.181625-109    0.243268-113    0.526820D+00
   0   260    0.146649-117    0.320822-110    0.391835-114    0.526820D+00
   0   261    0.225673-118    0.564569-111    0.678002-115    0.526820D+00
   0   262    0.345501-119    0.989772-112    0.105633-115    0.526820D+00
   0   263    0.539793-120    0.172871-112    0.151080-116    0.526820D+00
   0   264    0.816250-121    0.300802-113    0.252013-117    0.526820D+00
   0   265    0.124352-121    0.521453-114    0.367982-118    0.526820D+00
   0   266    0.192731-122    0.900592-115    0.558661-119    0.526820D+00
   0   267    0.291864-123    0.154961-115    0.849455-120    0.526820D+00
   0   268    0.441715-124    0.265645-116    0.125682-120    0.526820D+00
   0   269    0.679879-125    0.453701-117    0.207501-121    0.526820D+00
   0   270    0.101924-125    0.772022-118    0.305226-122    0.526820D+00
   0   271    0.154109-126    0.130883-118    0.480524-123    0.526820D+00
   0   272    0.233371-127    0.221075-119    0.669581-124    0.526820D+00
   0   273    0.344438-128    0.372045-120    0.933550-125    0.526820D+00
   0   274    0.505334-129    0.623817-121    0.143100-125    0.526820D+00
   0   275    0.742000-130    0.104215-121    0.213650-126    0.526820D+00
   0   276    0.110000-130    0.173466-122    0.303283-127    0.526820D+00
   0   277    0.160772-131    0.287683-123    0.522860-128    0.526820D+00
   0   278    0.228762-132    0.475373-124    0.753480-129    0.526820D+00
   0   279    0.333228-133    0.782671-125    0.108250-129    0.526820D+00
   0   280    0.480797-134    0.128396-125    0.156243-130    0.526820D+00
   0   281    0.693713-135    0.209872-126    0.222048-131    0.526820D+00
   0   282    0.101150-135    0.341815-127    0.285796-132    0.526820D+00
   0   283    0.143969-136    0.554710-128    0.481492-133    0.526820D+00
   0   284    0.204806-137    0.896981-129    0.611280-134    0.526820D+00
   0   285    0.290860-138    0.144526-129    0.966169-135    0.526820D+00
   0   286    0.415432-139    0.232037-130    0.129943-135    0.526820D+00
   0   287    0.587596-140    0.371212-131    0.175008-136    0.526820D+00
   0   288    0.840589-141    0.591756-132    0.255199-137    0.526820D+00
   0   289    0.116213-141    0.939990-133    0.372693-138    0.526820D+00
   0   290    0.160287-142    0.148788-133    0.539602-139    0.526820D+00
   0   291    0.222728-143    0.234682-134    0.731696-140    0.526820D+00
   0   292    0.313480-144    0.368861-135    0.919590-141    0.526820D+00
   0   293    0.434740-145    0.577724-136    0.129698-141    0.526820D+00
   0   294    0.593200-146    0.901687-137    0.192023-142    0.526820D+00
   0   295    0.816598-147    0.140241-137    0.257715-143    0.526820D+00
   0   296    0.111495-147    0.217359-138    0.384798-144    0.526820D+00
   0   297    0.150663-148    0.335715-139    0.543557-145    0.526820D+00
   0   298    0.206796-149    0.516721-140    0.646279-146    0.526820D+00
   0   299    0.280761-150    0.792572-141    0.877160-147    0.526820D+00
   0   300    0.381086-151    0.121149-141    0.121026-147    0.526820D+00
   0   301    0.509214-152    0.184547-142    0.163266-148    0.526820D+00
   0   302    0.690107-153    0.280157-143    0.221875-149    0.526820D+00
   0   303    0.926385-154    0.423844-144    0.301445-150    0.526820D+00
   0   304    0.122106-154    0.639036-145    0.438754-151    0.526820D+00
   0   305    0.160536-155    0.960203-146    0.527003-152    0.526820D+00
   0   306    0.213891-156    0.143788-146    0.730088-153    0.526820D+00
   0   307    0.279452-157    0.214589-147    0.100616-153    0.526820D+00
   0   308    0.366804-158    0.319169-148    0.124090-154    0.526820D+00
   0   309    0.484287-159    0.473115-149    0.162224-155    0.526820D+00
   0   310    0.627966-160    0.698955-150    0.230398-156    0.526820D+00
   0   311    0.809272-161    0.102913-150    0.309614-157    0.526820D+00
   0   312    0.103523-161    0.151020-151    0.364694-158    0.526820D+00
   0   313    0.133002-162    0.220875-152    0.473108-159    0.526820D+00
   0   314    0.173429-163    0.321965-153    0.609129-160    0.526820D+00
   0   315    0.218259-164    0.467760-154    0.786309-161    0.526820D+00
   0   316    0.279463-165    0.677322-155    0.103716-161    0.526820D+00
   0   317    0.356515-166    0.977525-156    0.118618-162    0.526820D+00
   0   318    0.450850-167    0.140613-156    0.173764-163    0.526820D+00
   0   319    0.570212-168    0.201599-157    0.206993-164    0.526820D+00
   0   320    0.718134-169    0.288087-158    0.246351-165    0.526820D+00
   0   321    0.908108-170    0.410329-159    0.318722-166    0.526820D+00
   0   322    0.113813-170    0.582532-160    0.396282-167    0.526820D+00
   0   323    0.141916-171    0.824304-161    0.555678-168    0.526820D+00
   0   324    0.174484-172    0.116263-161    0.657316-169    0.526820D+00
   0   325    0.217979-173    0.163448-162    0.850180-170    0.526820D+00
   0   326    0.269588-174    0.229040-163    0.959778-171    0.526820D+00
   0   327    0.329289-175    0.319917-164    0.119048-171    0.526820D+00
   0   328    0.402236-176    0.445412-165    0.143529-172    0.526820D+00
   0   329    0.485843-177    0.618141-166    0.190615-173    0.526820D+00
   0   330    0.590200-178    0.855100-167    0.213686-174    0.526820D+00
   0   331    0.718341-179    0.117911-167    0.280221-175    0.526820D+00
   0   332    0.873357-180    0.162070-168    0.327990-176    0.526820D+00
   0   333    0.105282-180    0.222058-169    0.416767-177    0.526820D+00
   0   334    0.127487-181    0.303283-170    0.501305-178    0.526820D+00
   0   335    0.151962-182    0.412905-171    0.624491-179    0.526820D+00
   0   336    0.181670-183    0.560372-172    0.718543-180    0.526820D+00
   0   337    0.211779-184    0.758106-173    0.864392-181    0.526820D+00
   0   338    0.251637-185    0.102238-173    0.969781-182    0.526820D+00
   0   339    0.298928-186    0.137446-174    0.113094-182    0.526820D+00
   0   340    0.354645-187    0.184199-175    0.132387-183    0.526820D+00
   0   341    0.416418-188    0.246084-176    0.158866-184    0.526820D+00
   0   342    0.489974-189    0.327734-177    0.193465-185    0.526820D+00
   0   343    0.579740-190    0.435118-178    0.242111-186    0.526820D+00
   0   344    0.665938-191    0.575893-179    0.290221-187    0.526820D+00
   0   345    0.761778-192    0.759852-180    0.328684-188    0.526820D+00
   0   346    0.895880-193    0.999477-181    0.358469-189    0.526820D+00
   0   347    0.103184-193    0.131062-181    0.405543-190    0.526820D+00
   0   348    0.118658-194    0.171333-182    0.486403-191    0.526820D+00
   0   349    0.136678-195    0.223290-183    0.593130-192    0.526820D+00
   0   350    0.154226-196    0.290114-184    0.648034-193    0.526820D+00
   0   351    0.175248-197    0.375784-185    0.684202-194    0.526820D+00
   0   352    0.199503-198    0.485268-186    0.859333-195    0.526820D+00
   0   353    0.224971-199    0.624745-187    0.913183-196    0.526820D+00
   0   354    0.254427-200    0.801871-188    0.100798-196    0.526820D+00
   0   355    0.286309-201    0.102610-188    0.113829-197    0.526820D+00
   0   356    0.322021-202    0.130906-189    0.141490-198    0.526820D+00
   0   357    0.362526-203    0.166503-190    0.151834-199    0.526820D+00
   0   358    0.413217-204    0.211142-191    0.176010-200    0.526820D+00
   0   359    0.452273-205    0.266946-192    0.201016-201    0.526820D+00
   0   360    0.498907-206    0.336488-193    0.204925-202    0.526820D+00
   0   361    0.556613-207    0.422880-194    0.223578-203    0.526820D+00
   0   362    0.616424-208    0.529870-195    0.260195-204    0.526820D+00
   0   363    0.673228-209    0.661954-196    0.302228-205    0.526820D+00
   0   364    0.733127-210    0.824511-197    0.328253-206    0.526820D+00
   0   365    0.792287-211    0.102395-197    0.339397-207    0.526820D+00
   0   366    0.851849-212    0.126787-198    0.399494-208    0.526820D+00
   0   367    0.938751-213    0.156527-199    0.404422-209    0.526820D+00
   0   368    0.100438-213    0.192676-200    0.433719-210    0.526820D+00
   0   369    0.107618-214    0.236477-201    0.509329-211    0.526820D+00
   0   370    0.114652-215    0.289385-202    0.491329-212    0.526820D+00
   0   371    0.124369-216    0.353097-203    0.525115-213    0.526820D+00
   0   372    0.133626-217    0.429580-204    0.595100-214    0.526820D+00
   0   373    0.143068-218    0.521111-205    0.613199-215    0.526820D+00
   0   374    0.153235-219    0.630310-206    0.720656-216    0.526820D+00
   0   375    0.162021-220    0.760184-207    0.744670-217    0.526820D+00
   0   376    0.170161-221    0.914170-208    0.763592-218    0.526820D+00
   0   377    0.179605-222    0.109618-208    0.778393-219    0.526820D+00
   0   378    0.188861-223    0.131065-209    0.821066-220    0.526820D+00
   0   379    0.197117-224    0.156258-210    0.899861-221    0.526820D+00
   0   380    0.206303-225    0.185760-211    0.892309-222    0.526820D+00
   0   381    0.215449-226    0.220201-212    0.970086-223    0.526820D+00
   0   382    0.225430-227    0.260284-213    0.106313-223    0.526820D+00
   0   383    0.233328-228    0.306787-214    0.105631-224    0.526820D+00
   0   384    0.238050-229    0.360572-215    0.118704-225    0.526820D+00
   0   385    0.242886-230    0.422586-216    0.114426-226    0.526820D+00
   0   386    0.248782-231    0.493865-217    0.120428-227    0.526820D+00
   0   387    0.253739-232    0.575540-218    0.113592-228    0.526820D+00
   0   388    0.260527-233    0.668833-219    0.122352-229    0.526820D+00
   0   389    0.263341-234    0.775066-220    0.130972-230    0.526820D+00
   0   390    0.263385-235    0.895654-221    0.125374-231    0.526820D+00
   0   391    0.268536-236    0.103211-221    0.126145-232    0.526820D+00
   0   392    0.271848-237    0.118603-222    0.137048-233    0.526820D+00
   0   393    0.273411-238    0.135912-223    0.124962-234    0.526820D+00
   0   394    0.274783-239    0.155313-224    0.139688-235    0.526820D+00
   0   395    0.274354-240    0.176992-225    0.132697-236    0.526820D+00
   0   396    0.274166-241    0.201138-226    0.125632-237    0.526820D+00
   0   397    0.274950-242    0.227947-227    0.133245-238    0.526820D+00