variables =  "IG"  "JG"  "PHI"  "Temp."  "Latent_heat"  "mm"
ZONE  I=  401  J=  101
   0     0    0.100000D+01    0.351772D+00    0.000000D+00    0.512812D+00
   0     1    0.100000D+01    0.351772D+00    0.000000D+00    0.512812D+00
   0     2    0.100000D+01    0.352792D+00    0.000000D+00    0.512754D+00
   0     3    0.100000D+01    0.354818D+00    0.000000D+00    0.512636D+00
   0     4    0.100000D+01    0.357819D+00    0.000000D+00    0.512462D+00
   0     5    0.100000D+01    0.361748D+00    0.000000D+00    0.512231D+00
   0     6    0.100000D+01    0.366549D+00    0.000000D+00    0.511946D+00
   0     7    0.100000D+01    0.372151D+00    0.000000D+00    0.511609D+00
   0     8    0.100000D+01    0.378474D+00    0.000000D+00    0.511222D+00
   0     9    0.100000D+01    0.385429D+00    0.000000D+00    0.510790D+00
   0    10    0.100000D+01    0.392922D+00    0.000000D+00    0.510315D+00
   0    11    0.100000D+01    0.400854D+00    0.000000D+00    0.509802D+00
   0    12    0.100000D+01    0.409124D+00    0.000000D+00    0.509255D+00
   0    13    0.100000D+01    0.417633D+00    0.000000D+00    0.508679D+00
   0    14    0.100000D+01    0.426282D+00    0.000000D+00    0.508080D+00
   0    15    0.100000D+01    0.434977D+00    0.000000D+00    0.507464D+00
   0    16    0.100000D+01    0.443629D+00    0.000000D+00    0.506835D+00
   0    17    0.100000D+01    0.452156D+00    0.000000D+00    0.506199D+00
   0    18    0.100000D+01    0.460485D+00    0.000000D+00    0.505564D+00
   0    19    0.100000D+01    0.468551D+00    0.000000D+00    0.504933D+00
   0    20    0.100000D+01    0.476299D+00    0.000000D+00    0.504313D+00
   0    21    0.100000D+01    0.483682D+00    0.000000D+00    0.503709D+00
   0    22    0.100000D+01    0.490664D+00    0.000000D+00    0.503125D+00
   0    23    0.100000D+01    0.497219D+00    0.000000D+00    0.502565D+00
   0    24    0.100000D+01    0.503328D+00    0.000000D+00    0.502033D+00
   0    25    0.100000D+01    0.508982D+00    0.000000D+00    0.501532D+00
   0    26    0.100000D+01    0.514179D+00    0.000000D+00    0.501063D+00
   0    27    0.100000D+01    0.518925D+00    0.000000D+00    0.500629D+00
   0    28    0.100000D+01    0.523229D+00    0.000000D+00    0.500229D+00
   0    29    0.100000D+01    0.527107D+00    0.000000D+00    0.499863D+00
   0    30    0.100000D+01    0.530580D+00    0.000000D+00    0.499533D+00
   0    31    0.100000D+01    0.533670D+00    0.000000D+00    0.499235D+00
   0    32    0.100000D+01    0.536403D+00    0.000000D+00    0.498969D+00
   0    33    0.100000D+01    0.538804D+00    0.000000D+00    0.498734D+00
   0    34    0.100000D+01    0.540901D+00    0.000000D+00    0.498527D+00
   0    35    0.100000D+01    0.542722D+00    0.000000D+00    0.498346D+00
   0    36    0.100000D+01    0.544294D+00    0.000000D+00    0.498189D+00
   0    37    0.100000D+01    0.545643D+00    0.000000D+00    0.498053D+00
   0    38    0.100000D+01    0.546793D+00    0.000000D+00    0.497937D+00
   0    39    0.100000D+01    0.547769D+00    0.000000D+00    0.497839D+00
   0    40    0.100000D+01    0.548592D+00    0.000000D+00    0.497755D+00
   0    41    0.100000D+01    0.549282D+00    0.000000D+00    0.497685D+00
   0    42    0.100000D+01    0.549858D+00    0.000000D+00    0.497626D+00
   0    43    0.100000D+01    0.550336D+00    0.000000D+00    0.497577D+00
   0    44    0.100000D+01    0.550730D+00    0.000000D+00    0.497537D+00
   0    45    0.100000D+01    0.551054D+00    0.000000D+00    0.497504D+00
   0    46    0.100000D+01    0.551318D+00    0.000000D+00    0.497477D+00
   0    47    0.100000D+01    0.551534D+00    0.000000D+00    0.497455D+00
   0    48    0.100000D+01    0.551708D+00    0.000000D+00    0.497437D+00
   0    49    0.100000D+01    0.551849D+00    0.000000D+00    0.497422D+00
   0    50    0.100000D+01    0.551963D+00    0.000000D+00    0.497411D+00
   0    51    0.100000D+01    0.552054D+00    0.000000D+00    0.497401D+00
   0    52    0.100000D+01    0.552127D+00    0.000000D+00    0.497394D+00
   0    53    0.100000D+01    0.552185D+00    0.000000D+00    0.497388D+00
   0    54    0.100000D+01    0.552232D+00    0.000000D+00    0.497383D+00
   0    55    0.100000D+01    0.552269D+00    0.000000D+00    0.497379D+00
   0    56    0.100000D+01    0.552300D+00    0.000000D+00    0.497376D+00
   0    57    0.100000D+01    0.552324D+00    0.000000D+00    0.497374D+00
   0    58    0.100000D+01    0.552344D+00    0.000000D+00    0.497372D+00
   0    59    0.100000D+01    0.552360D+00    0.000000D+00    0.497370D+00
   0    60    0.100000D+01    0.552373D+00    0.000000D+00    0.497368D+00
   0    61    0.100000D+01    0.552384D+00    0.000000D+00    0.497367D+00
   0    62    0.100000D+01    0.552393D+00    0.000000D+00    0.497366D+00
   0    63    0.100000D+01    0.552400D+00    0.000000D+00    0.497366D+00
   0    64    0.100000D+01    0.552407D+00    0.000000D+00    0.497365D+00
   0    65    0.100000D+01    0.552412D+00    0.000000D+00    0.497364D+00
   0    66    0.100000D+01    0.552417D+00    0.000000D+00    0.497364D+00
   0    67    0.100000D+01    0.552421D+00    0.000000D+00    0.497364D+00
   0    68    0.100000D+01    0.552424D+00    0.000000D+00    0.497363D+00
   0    69    0.100000D+01    0.552426D+00    0.000000D+00    0.497363D+00
   0    70    0.100000D+01    0.552429D+00    0.000000D+00    0.497363D+00
   0    71    0.100000D+01    0.552430D+00    0.000000D+00    0.497363D+00
   0    72    0.100000D+01    0.552432D+00    0.000000D+00    0.497362D+00
   0    73    0.100000D+01    0.552433D+00    0.000000D+00    0.497362D+00
   0    74    0.100000D+01    0.552433D+00    0.000000D+00    0.497362D+00
   0    75    0.100000D+01    0.552434D+00    0.000000D+00    0.497362D+00
   0    76    0.100000D+01    0.552434D+00    0.000000D+00    0.497362D+00
   0    77    0.100000D+01    0.552433D+00    0.000000D+00    0.497362D+00
   0    78    0.100000D+01    0.552433D+00    0.000000D+00    0.497362D+00
   0    79    0.100000D+01    0.552432D+00    0.000000D+00    0.497362D+00
   0    80    0.100000D+01    0.552431D+00    0.000000D+00    0.497362D+00
   0    81    0.100000D+01    0.552430D+00    0.000000D+00    0.497363D+00
   0    82    0.100000D+01    0.552429D+00    0.000000D+00    0.497363D+00
   0    83    0.100000D+01    0.552428D+00    0.000000D+00    0.497363D+00
   0    84    0.100000D+01    0.552426D+00    0.000000D+00    0.497363D+00
   0    85    0.100000D+01    0.552425D+00    0.000000D+00    0.497363D+00
   0    86    0.100000D+01    0.552423D+00    0.000000D+00    0.497363D+00
   0    87    0.100000D+01    0.552422D+00    0.000000D+00    0.497363D+00
   0    88    0.100000D+01    0.552421D+00    0.000000D+00    0.497364D+00
   0    89    0.100000D+01    0.552420D+00    0.000000D+00    0.497364D+00
   0    90    0.100000D+01    0.552418D+00    0.000000D+00    0.497364D+00
   0    91    0.100000D+01    0.552417D+00    0.000000D+00    0.497364D+00
   0    92    0.100000D+01    0.552416D+00    0.000000D+00    0.497364D+00
   0    93    0.100000D+01    0.552415D+00    0.000000D+00    0.497364D+00
   0    94    0.100000D+01    0.552414D+00    0.000000D+00    0.497364D+00
   0    95    0.100000D+01    0.552413D+00    0.000000D+00    0.497364D+00
   0    96    0.100000D+01    0.552412D+00    0.000000D+00    0.497364D+00
   0    97    0.100000D+01    0.552411D+00    0.000000D+00    0.497365D+00
   0    98    0.100000D+01    0.552409D+00    0.000000D+00    0.497365D+00
   0    99    0.100000D+01    0.552407D+00    0.000000D+00    0.497365D+00
   0   100    0.100000D+01    0.552405D+00    0.000000D+00    0.497365D+00
   0   101    0.100000D+01    0.552402D+00    0.000000D+00    0.497366D+00
   0   102    0.100000D+01    0.552399D+00    0.000000D+00    0.497366D+00
   0   103    0.100000D+01    0.552395D+00    0.000000D+00    0.497366D+00
   0   104    0.100000D+01    0.552391D+00    0.000000D+00    0.497367D+00
   0   105    0.100000D+01    0.552387D+00    0.000000D+00    0.497367D+00
   0   106    0.100000D+01    0.552383D+00    0.000000D+00    0.497367D+00
   0   107    0.100000D+01    0.552379D+00    0.000000D+00    0.497368D+00
   0   108    0.100000D+01    0.552376D+00    0.000000D+00    0.497368D+00
   0   109    0.100000D+01    0.552372D+00    0.000000D+00    0.497369D+00
   0   110    0.100000D+01    0.552369D+00    0.000000D+00    0.497369D+00
   0   111    0.100000D+01    0.552366D+00    0.000000D+00    0.497369D+00
   0   112    0.100000D+01    0.552364D+00    0.000000D+00    0.497369D+00
   0   113    0.100000D+01    0.552361D+00    0.000000D+00    0.497370D+00
   0   114    0.100000D+01    0.552359D+00    0.000000D+00    0.497370D+00
   0   115    0.100000D+01    0.552357D+00    0.000000D+00    0.497370D+00
   0   116    0.100000D+01    0.552355D+00    0.000000D+00    0.497370D+00
   0   117    0.100000D+01    0.552352D+00    0.000000D+00    0.497371D+00
   0   118    0.100000D+01    0.552349D+00    0.000000D+00    0.497371D+00
   0   119    0.100000D+01    0.552346D+00    0.000000D+00    0.497371D+00
   0   120    0.100000D+01    0.552342D+00    0.000000D+00    0.497372D+00
   0   121    0.100000D+01    0.552338D+00    0.000000D+00    0.497372D+00
   0   122    0.100000D+01    0.552332D+00    0.000000D+00    0.497373D+00
   0   123    0.100000D+01    0.552326D+00    0.000000D+00    0.497373D+00
   0   124    0.100000D+01    0.552318D+00    0.000000D+00    0.497374D+00
   0   125    0.100000D+01    0.552309D+00    0.000000D+00    0.497375D+00
   0   126    0.100000D+01    0.552299D+00    0.000000D+00    0.497376D+00
   0   127    0.100000D+01    0.552288D+00    0.000000D+00    0.497377D+00
   0   128    0.100000D+01    0.552277D+00    0.000000D+00    0.497378D+00
   0   129    0.100000D+01    0.552266D+00    0.000000D+00    0.497380D+00
   0   130    0.100000D+01    0.552255D+00    0.000000D+00    0.497381D+00
   0   131    0.100000D+01    0.552247D+00    0.000000D+00    0.497382D+00
   0   132    0.100000D+01    0.552241D+00    0.000000D+00    0.497382D+00
   0   133    0.100000D+01    0.552237D+00    0.000000D+00    0.497382D+00
   0   134    0.100000D+01    0.552238D+00    0.613030D-11    0.497382D+00
   0   135    0.100000D+01    0.552241D+00    0.183909D-10    0.497382D+00
   0   136    0.100000D+01    0.552247D+00    0.919545D-10    0.497382D+00
   0   137    0.100000D+01    0.552254D+00    0.484294D-09    0.497381D+00
   0   138    0.100000D+01    0.552263D+00    0.294254D-08    0.497380D+00
   0   139    0.100000D+01    0.552271D+00    0.189304D-07    0.497379D+00
   0   140    0.100000D+01    0.552278D+00    0.124445D-06    0.497378D+00
   0   141    0.100000D+01    0.552283D+00    0.651957D-06    0.497378D+00
   0   142    0.100000D+01    0.552285D+00    0.365350D-05    0.497378D+00
   0   143    0.100000D+01    0.552285D+00    0.210576D-04    0.497378D+00
   0   144    0.100000D+01    0.552286D+00    0.152649D-03    0.497377D+00
   0   145    0.100000D+01    0.552301D+00    0.867668D-03    0.497376D+00
   0   146    0.999998D+00    0.552340D+00    0.509985D-02    0.497372D+00
   0   147    0.999986D+00    0.552402D+00    0.279148D-01    0.497366D+00
   0   148    0.999918D+00    0.552464D+00    0.173144D+00    0.497359D+00
   0   149    0.999520D+00    0.552416D+00    0.812580D+00    0.497365D+00
   0   150    0.997132D+00    0.551863D+00    0.542366D+01    0.497424D+00
   0   151    0.983503D+00    0.548996D+00    0.312896D+02    0.497729D+00
   0   152    0.908324D+00    0.529868D+00    0.166250D+03    0.499678D+00
   0   153    0.550749D+00    0.415862D+00    0.626284D+03    0.509112D+00
   0   154    0.162937D+00    0.194523D+00    0.287875D+03    0.520514D+00
   0   155    0.380993D-01    0.680513D-01    0.586296D+02    0.524874D+00
   0   156    0.833895D-02    0.209566D-01    0.160882D+02    0.526246D+00
   0   157    0.184509D-02    0.599858D-02    0.316491D+01    0.526658D+00
   0   158    0.401952D-03    0.164108D-02    0.643173D+00    0.526775D+00
   0   159    0.883687D-04    0.435757D-03    0.161429D+00    0.526808D+00
   0   160    0.189780D-04    0.113074D-03    0.350575D-01    0.526816D+00
   0   161    0.410093D-05    0.288590D-04    0.717191D-02    0.526819D+00
   0   162    0.882301D-06    0.726189D-05    0.139413D-02    0.526819D+00
   0   163    0.189036D-06    0.180643D-05    0.293897D-03    0.526819D+00
   0   164    0.417302D-07    0.446476D-06    0.624226D-04    0.526819D+00
   0   165    0.915472D-08    0.109624D-06    0.151993D-04    0.526820D+00
   0   166    0.196051D-08    0.267579D-07    0.337075D-05    0.526820D+00
   0   167    0.426782D-09    0.649910D-08    0.821145D-06    0.526820D+00
   0   168    0.933199D-10    0.157099D-08    0.180410D-06    0.526820D+00
   0   169    0.202397D-10    0.378013D-09    0.386041D-07    0.526820D+00
   0   170    0.439696D-11    0.906274D-10    0.761682D-08    0.526820D+00
   0   171    0.932684D-12    0.216755D-10    0.157323D-08    0.526820D+00
   0   172    0.205343D-12    0.517239D-11    0.353030D-09    0.526820D+00
   0   173    0.447696D-13    0.123171D-11    0.780676D-10    0.526820D+00
   0   174    0.985849D-14    0.292870D-12    0.147997D-10    0.526820D+00
   0   175    0.215479D-14    0.695076D-13    0.401823D-11    0.526820D+00
   0   176    0.474602D-15    0.164690D-13    0.899266D-12    0.526820D+00
   0   177    0.101294D-15    0.389667D-14    0.196399D-12    0.526820D+00
   0   178    0.222960D-16    0.920648D-15    0.423231D-13    0.526820D+00
   0   179    0.475815D-17    0.217208D-15    0.955588D-14    0.526820D+00
   0   180    0.102246D-17    0.511864D-16    0.166780D-14    0.526820D+00
   0   181    0.221407D-18    0.120504D-16    0.435152D-15    0.526820D+00
   0   182    0.480603D-19    0.283502D-17    0.805087D-16    0.526820D+00
   0   183    0.104653D-19    0.666337D-18    0.198519D-16    0.526820D+00
   0   184    0.233433D-20    0.156510D-18    0.392601D-17    0.526820D+00
   0   185    0.503323D-21    0.367367D-19    0.953366D-18    0.526820D+00
   0   186    0.109523D-21    0.861631D-20    0.190509D-18    0.526820D+00
   0   187    0.237512D-22    0.201900D-20    0.444236D-19    0.526820D+00
   0   188    0.516689D-23    0.472771D-21    0.880354D-20    0.526820D+00
   0   189    0.111649D-23    0.110641D-21    0.177984D-20    0.526820D+00
   0   190    0.241798D-24    0.258819D-22    0.377776D-21    0.526820D+00
   0   191    0.529952D-25    0.605170D-23    0.917732D-22    0.526820D+00
   0   192    0.113973D-25    0.141424D-23    0.209759D-22    0.526820D+00
   0   193    0.246215D-26    0.330371D-24    0.483875D-23    0.526820D+00
   0   194    0.536191D-27    0.771446D-25    0.824973D-24    0.526820D+00
   0   195    0.116041D-27    0.180098D-25    0.203078D-24    0.526820D+00
   0   196    0.251590D-28    0.420297D-26    0.440296D-25    0.526820D+00
   0   197    0.554684D-29    0.980679D-27    0.985091D-26    0.526820D+00
   0   198    0.120597D-29    0.228753D-27    0.192744D-26    0.526820D+00
   0   199    0.258149D-30    0.533429D-28    0.453715D-27    0.526820D+00
   0   200    0.562631D-31    0.124356D-28    0.908204D-28    0.526820D+00
   0   201    0.122443D-31    0.289836D-29    0.198953D-28    0.526820D+00
   0   202    0.264196D-32    0.675422D-30    0.440250D-29    0.526820D+00
   0   203    0.580285D-33    0.157360D-30    0.105263D-29    0.526820D+00
   0   204    0.125059D-33    0.366568D-31    0.213639D-30    0.526820D+00
   0   205    0.271452D-34    0.853767D-32    0.464096D-31    0.526820D+00
   0   206    0.584169D-35    0.198815D-32    0.993981D-32    0.526820D+00
   0   207    0.129065D-35    0.462910D-33    0.226593D-32    0.526820D+00
   0   208    0.276112D-36    0.107770D-33    0.566293D-33    0.526820D+00
   0   209    0.600755D-37    0.250873D-34    0.987235D-34    0.526820D+00
   0   210    0.130305D-37    0.583915D-35    0.219651D-34    0.526820D+00
   0   211    0.282783D-38    0.135890D-35    0.531417D-35    0.526820D+00
   0   212    0.609652D-39    0.316233D-36    0.110344D-35    0.526820D+00
   0   213    0.132199D-39    0.735840D-37    0.203380D-36    0.526820D+00
   0   214    0.289400D-40    0.171214D-37    0.508252D-37    0.526820D+00
   0   215    0.624676D-41    0.398348D-38    0.122675D-37    0.526820D+00
   0   216    0.135465D-41    0.926765D-39    0.247884D-38    0.526820D+00
   0   217    0.296288D-42    0.215604D-39    0.568867D-39    0.526820D+00
   0   218    0.632085D-43    0.501556D-40    0.121295D-39    0.526820D+00
   0   219    0.137144D-43    0.116673D-40    0.221423D-40    0.526820D+00
   0   220    0.301041D-44    0.271397D-41    0.444618D-41    0.526820D+00
   0   221    0.654644D-45    0.631290D-42    0.102403D-41    0.526820D+00
   0   222    0.140616D-45    0.146838D-42    0.264157D-42    0.526820D+00
   0   223    0.309154D-46    0.341537D-43    0.505392D-43    0.526820D+00
   0   224    0.674967D-47    0.794371D-44    0.107938D-43    0.526820D+00
   0   225    0.144983D-47    0.184758D-44    0.248727D-44    0.526820D+00
   0   226    0.313441D-48    0.429711D-45    0.518122D-45    0.526820D+00
   0   227    0.681197D-49    0.999409D-46    0.124757D-45    0.526820D+00
   0   228    0.147963D-49    0.232438D-46    0.281482D-46    0.526820D+00
   0   229    0.323821D-50    0.540587D-47    0.525701D-47    0.526820D+00
   0   230    0.713474D-51    0.125723D-47    0.139832D-47    0.526820D+00
   0   231    0.154620D-51    0.292389D-48    0.314595D-48    0.526820D+00
   0   232    0.333509D-52    0.679991D-49    0.660552D-49    0.526820D+00
   0   233    0.723856D-53    0.158139D-49    0.125173D-49    0.526820D+00
   0   234    0.158060D-53    0.367765D-50    0.275682D-50    0.526820D+00
   0   235    0.348292D-54    0.855264D-51    0.677786D-51    0.526820D+00
   0   236    0.754350D-55    0.198896D-51    0.136695D-51    0.526820D+00
   0   237    0.161543D-55    0.462544D-52    0.311418D-52    0.526820D+00
   0   238    0.354889D-56    0.107567D-52    0.518394D-53    0.526820D+00
   0   239    0.777717D-57    0.250156D-53    0.150592D-53    0.526820D+00
   0   240    0.166573D-57    0.581758D-54    0.282225D-54    0.526820D+00
   0   241    0.358311D-58    0.135293D-54    0.683389D-55    0.526820D+00
   0   242    0.766776D-59    0.314640D-55    0.148068D-55    0.526820D+00
   0   243    0.168261D-59    0.731744D-56    0.314368D-56    0.526820D+00
   0   244    0.366139D-60    0.170181D-56    0.691170D-57    0.526820D+00
   0   245    0.779062D-61    0.395795D-57    0.127529D-57    0.526820D+00
   0   246    0.173799D-61    0.920531D-58    0.299609D-58    0.526820D+00
   0   247    0.376390D-62    0.214099D-58    0.648151D-59    0.526820D+00
   0   248    0.824642D-63    0.497966D-59    0.136117D-59    0.526820D+00
   0   249    0.177789D-63    0.115823D-59    0.345812D-60    0.526820D+00
   0   250    0.392239D-64    0.269404D-60    0.574821D-61    0.526820D+00
   0   251    0.837873D-65    0.626647D-61    0.162914D-61    0.526820D+00
   0   252    0.181634D-65    0.145765D-61    0.354902D-62    0.526820D+00
   0   253    0.390740D-66    0.339078D-62    0.615629D-63    0.526820D+00
   0   254    0.849128D-67    0.788784D-63    0.148640D-63    0.526820D+00
   0   255    0.183748D-67    0.183498D-63    0.332440D-64    0.526820D+00
   0   256    0.402995D-68    0.426895D-64    0.646096D-65    0.526820D+00
   0   257    0.870072D-69    0.993174D-65    0.132412D-65    0.526820D+00
   0   258    0.185214D-69    0.231071D-65    0.374277D-66    0.526820D+00
   0   259    0.402995D-70    0.537630D-66    0.742696D-67    0.526820D+00
   0   260    0.881091D-71    0.125095D-66    0.153174D-67    0.526820D+00
   0   261    0.190936D-71    0.291078D-67    0.289477D-68    0.526820D+00
   0   262    0.412914D-72    0.677327D-68    0.717447D-69    0.526820D+00
   0   263    0.894150D-73    0.157618D-68    0.159688D-69    0.526820D+00
   0   264    0.198013D-73    0.366799D-69    0.314051D-70    0.526820D+00
   0   265    0.434335D-74    0.853628D-70    0.746296D-71    0.526820D+00
   0   266    0.949199D-75    0.198667D-70    0.157312D-71    0.526820D+00
   0   267    0.204141D-75    0.462382D-71    0.403722D-72    0.526820D+00
   0   268    0.442631D-76    0.107620D-71    0.722050D-73    0.526820D+00
   0   269    0.944961D-77    0.250496D-72    0.145883D-73    0.526820D+00
   0   270    0.205866D-77    0.583077D-73    0.307054D-74    0.526820D+00
   0   271    0.459136D-78    0.135728D-73    0.838957D-75    0.526820D+00
   0   272    0.996978D-79    0.315957D-74    0.178064D-75    0.526820D+00
   0   273    0.214149D-79    0.735535D-75    0.326632D-76    0.526820D+00
   0   274    0.477445D-80    0.171236D-75    0.669078D-77    0.526820D+00
   0   275    0.104653D-80    0.398661D-76    0.167854D-77    0.526820D+00
   0   276    0.225035D-81    0.928171D-77    0.362850D-78    0.526820D+00
   0   277    0.492269D-82    0.216107D-77    0.753603D-79    0.526820D+00
   0   278    0.106825D-82    0.503179D-78    0.201817D-79    0.526820D+00
   0   279    0.231131D-83    0.117163D-78    0.373195D-80    0.526820D+00
   0   280    0.504493D-84    0.272819D-79    0.749635D-81    0.526820D+00
   0   281    0.110804D-84    0.635286D-80    0.167266D-81    0.526820D+00
   0   282    0.241787D-85    0.147937D-80    0.459801D-82    0.526820D+00
   0   283    0.514819D-86    0.344502D-81    0.860265D-83    0.526820D+00
   0   284    0.112102D-86    0.802264D-82    0.204695D-83    0.526820D+00
   0   285    0.245112D-87    0.186831D-82    0.358491D-84    0.526820D+00
   0   286    0.528859D-88    0.435097D-83    0.988443D-85    0.526820D+00
   0   287    0.116782D-88    0.101327D-83    0.168145D-85    0.526820D+00
   0   288    0.256476D-89    0.235974D-84    0.379181D-86    0.526820D+00
   0   289    0.551502D-90    0.549539D-85    0.871907D-87    0.526820D+00
   0   290    0.120130D-90    0.127976D-85    0.206325D-87    0.526820D+00
   0   291    0.260804D-91    0.298020D-86    0.425137D-88    0.526820D+00
   0   292    0.571092D-92    0.693983D-87    0.984150D-89    0.526820D+00
   0   293    0.124576D-92    0.161597D-87    0.207136D-89    0.526820D+00
   0   294    0.264972D-93    0.376263D-88    0.490947D-90    0.526820D+00
   0   295    0.574347D-94    0.876030D-89    0.109052D-90    0.526820D+00
   0   296    0.124830D-94    0.203944D-89    0.196882D-91    0.526820D+00
   0   297    0.273567D-95    0.474742D-90    0.433837D-92    0.526820D+00
   0   298    0.591030D-96    0.110498D-90    0.107491D-92    0.526820D+00
   0   299    0.127352D-96    0.257153D-91    0.212560D-93    0.526820D+00
   0   300    0.273958D-97    0.598355D-92    0.563142D-94    0.526820D+00
   0   301    0.587309D-98    0.139203D-92    0.109945D-94    0.526820D+00
   0   302    0.126887D-98    0.323782D-93    0.222754D-95    0.526820D+00
   0   303    0.275000D-99    0.752933D-94    0.535089D-96    0.526820D+00
   0   304    0.604269-100    0.175045D-94    0.952933D-97    0.526820D+00
   0   305    0.128449-100    0.406837D-95    0.269701D-97    0.526820D+00
   0   306    0.277750-101    0.945270D-96    0.443172D-98    0.526820D+00
   0   307    0.581626-102    0.219554D-96    0.973575D-99    0.526820D+00
   0   308    0.125991-102    0.509759D-97    0.190726D-99    0.526820D+00
   0   309    0.271606-103    0.118307D-97    0.436194-100    0.526820D+00
   0   310    0.579127-104    0.274448D-98    0.119697-100    0.526820D+00
   0   311    0.122875-104    0.636358D-99    0.223639-101    0.526820D+00
   0   312    0.261642-105    0.147474D-99    0.539958-102    0.526820D+00
   0   313    0.553373-106    0.341576-100    0.966254-103    0.526820D+00
   0   314    0.117154-106    0.790674-101    0.240612-103    0.526820D+00
   0   315    0.253957-107    0.182906-101    0.453301-104    0.526820D+00
   0   316    0.533260-108    0.422826-102    0.110040-104    0.526820D+00
   0   317    0.113766-108    0.976741-103    0.200977-105    0.526820D+00
   0   318    0.243584-109    0.225456-103    0.431910-106    0.526820D+00
   0   319    0.507378-110    0.519985-104    0.964163-107    0.526820D+00
   0   320    0.106592-110    0.119825-104    0.224673-107    0.526820D+00
   0   321    0.225244-111    0.275873-105    0.403435-108    0.526820D+00
   0   322    0.471661-112    0.634541-106    0.859737-109    0.526820D+00
   0   323    0.998383-113    0.145807-106    0.173579-109    0.526820D+00
   0   324    0.207596-113    0.334693-107    0.422986-110    0.526820D+00
   0   325    0.432192-114    0.767441-108    0.698733-111    0.526820D+00
   0   326    0.907866-115    0.175774-108    0.148609-111    0.526820D+00
   0   327    0.185511-115    0.402119-109    0.378162-112    0.526820D+00
   0   328    0.389466-116    0.918815-110    0.702845-113    0.526820D+00
   0   329    0.808175-117    0.209680-110    0.160985-113    0.526820D+00
   0   330    0.167309-117    0.477882-111    0.320384-114    0.526820D+00
   0   331    0.348120-118    0.108769-111    0.652231-115    0.526820D+00
   0   332    0.712368-119    0.247223-112    0.149732-115    0.526820D+00
   0   333    0.149323-119    0.561122-113    0.315945-116    0.526820D+00
   0   334    0.302796-120    0.127172-113    0.525789-117    0.526820D+00
   0   335    0.616106-121    0.287792-114    0.136391-117    0.526820D+00
   0   336    0.126083-121    0.650279-115    0.240514-118    0.526820D+00
   0   337    0.260652-122    0.146703-115    0.449182-119    0.526820D+00
   0   338    0.533778-123    0.330435-116    0.106939-119    0.526820D+00
   0   339    0.109488-123    0.743054-117    0.191317-120    0.526820D+00
   0   340    0.219353-124    0.166813-117    0.408804-121    0.526820D+00
   0   341    0.437451-125    0.373855-118    0.764043-122    0.526820D+00
   0   342    0.864357-126    0.836420-119    0.196296-122    0.526820D+00
   0   343    0.178136-126    0.186802-119    0.353354-123    0.526820D+00
   0   344    0.358088-127    0.416450-120    0.641643-124    0.526820D+00
   0   345    0.717589-128    0.926737-121    0.138081-124    0.526820D+00
   0   346    0.141592-128    0.205850-121    0.293577-125    0.526820D+00
   0   347    0.276923-129    0.456387-122    0.548315-126    0.526820D+00
   0   348    0.558708-130    0.100994-122    0.100281-126    0.526820D+00
   0   349    0.111796-130    0.223063-123    0.211777-127    0.526820D+00
   0   350    0.217213-131    0.491722-124    0.450838-128    0.526820D+00
   0   351    0.438621-132    0.108183-124    0.806282-129    0.526820D+00
   0   352    0.867207-133    0.237544-125    0.180183-129    0.526820D+00
   0   353    0.167867-133    0.520546-126    0.305730-130    0.526820D+00
   0   354    0.325614-134    0.113841-126    0.688287-131    0.526820D+00
   0   355    0.632906-135    0.248460-127    0.139318-131    0.526820D+00
   0   356    0.125933-135    0.541159-128    0.278961-132    0.526820D+00
   0   357    0.248753-136    0.117624-128    0.490205-133    0.526820D+00
   0   358    0.480569-137    0.255130-129    0.931270-134    0.526820D+00
   0   359    0.925194-138    0.552227-130    0.176630-134    0.526820D+00
   0   360    0.179562-138    0.119277-130    0.381050-135    0.526820D+00
   0   361    0.346674-139    0.257085-131    0.803005-136    0.526820D+00
   0   362    0.666659-140    0.552926-132    0.127828-136    0.526820D+00
   0   363    0.126497-140    0.118666-132    0.293629-137    0.526820D+00
   0   364    0.239494-141    0.254124-133    0.485108-138    0.526820D+00
   0   365    0.461094-142    0.543031-134    0.972588-139    0.526820D+00
   0   366    0.877161-143    0.115786-134    0.182208-139    0.526820D+00
   0   367    0.165141-143    0.246342-135    0.343347-140    0.526820D+00
   0   368    0.313320-144    0.522958-136    0.692587-141    0.526820D+00
   0   369    0.602970-145    0.110774-136    0.133338-141    0.526820D+00
   0   370    0.115463-145    0.234123-137    0.268253-142    0.526820D+00
   0   371    0.223085-146    0.493728-138    0.422699-143    0.526820D+00
   0   372    0.414654-147    0.103887-138    0.904591-144    0.526820D+00
   0   373    0.781350-148    0.218106-139    0.152644-144    0.526820D+00
   0   374    0.143937-148    0.456877-140    0.290745-145    0.526820D+00
   0   375    0.267631-149    0.954894-141    0.657225-146    0.526820D+00
   0   376    0.490389-150    0.199128-141    0.106061-146    0.526820D+00
   0   377    0.911554-151    0.414314-142    0.205568-147    0.526820D+00
   0   378    0.167555-151    0.860091-143    0.367616-148    0.526820D+00
   0   379    0.312091-152    0.178145-143    0.600602-149    0.526820D+00
   0   380    0.570271-153    0.368145-144    0.112434-149    0.526820D+00
   0   381    0.104296-153    0.759059-145    0.249842-150    0.526820D+00
   0   382    0.192217-154    0.156150-145    0.456031-151    0.526820D+00
   0   383    0.350337-155    0.320494-146    0.767146-152    0.526820D+00
   0   384    0.644454-156    0.656305-147    0.137737-152    0.526820D+00
   0   385    0.116604-156    0.134091-147    0.265402-153    0.526820D+00
   0   386    0.212423-157    0.273336-148    0.448997-154    0.526820D+00
   0   387    0.387647-158    0.555905-149    0.971090-155    0.526820D+00
   0   388    0.690624-159    0.112800-149    0.175729-155    0.526820D+00
   0   389    0.124495-159    0.228361-150    0.314188-156    0.526820D+00
   0   390    0.221495-160    0.461250-151    0.561369-157    0.526820D+00
   0   391    0.391975-161    0.929511-152    0.908682-158    0.526820D+00
   0   392    0.701242-162    0.186885-152    0.165193-158    0.526820D+00
   0   393    0.125742-162    0.374883-153    0.321213-159    0.526820D+00
   0   394    0.223475-163    0.750272-154    0.555385-160    0.526820D+00
   0   395    0.402960-164    0.149811-154    0.828136-161    0.526820D+00
   0   396    0.717173-165    0.298447-155    0.172156-161    0.526820D+00
   0   397    0.125564-165    0.593157-156    0.317991-162    0.526820D+00