variables =  "IG"  "JG"  "PHI"  "Temp."  "Latent_heat"  "mm"
ZONE  I=  401  J=  101
   0     0    0.100000D+01    0.126412D+00    0.000000D+00    0.522907D+00
   0     1    0.100000D+01    0.126412D+00    0.000000D+00    0.522907D+00
   0     2    0.100000D+01    0.133698D+00    0.000000D+00    0.522651D+00
   0     3    0.100000D+01    0.147857D+00    0.000000D+00    0.522143D+00
   0     4    0.100000D+01    0.168108D+00    0.000000D+00    0.521391D+00
   0     5    0.100000D+01    0.193392D+00    0.000000D+00    0.520407D+00
   0     6    0.100000D+01    0.222477D+00    0.000000D+00    0.519208D+00
   0     7    0.100000D+01    0.254070D+00    0.000000D+00    0.517817D+00
   0     8    0.100000D+01    0.286915D+00    0.000000D+00    0.516262D+00
   0     9    0.100000D+01    0.319866D+00    0.000000D+00    0.514577D+00
   0    10    0.100000D+01    0.351928D+00    0.000000D+00    0.512803D+00
   0    11    0.100000D+01    0.382276D+00    0.000000D+00    0.510986D+00
   0    12    0.100000D+01    0.410261D+00    0.122606D-10    0.509178D+00
   0    13    0.100000D+01    0.435406D+00    0.796939D-10    0.507432D+00
   0    14    0.100000D+01    0.457406D+00    0.478163D-09    0.505799D+00
   0    15    0.100000D+01    0.476125D+00    0.289963D-08    0.504326D+00
   0    16    0.100000D+01    0.491591D+00    0.177840D-07    0.503045D+00
   0    17    0.100000D+01    0.503981D+00    0.110787D-06    0.501975D+00
   0    18    0.100000D+01    0.513596D+00    0.566115D-06    0.501116D+00
   0    19    0.100000D+01    0.520819D+00    0.347387D-05    0.500453D+00
   0    20    0.100000D+01    0.526075D+00    0.169341D-04    0.499961D+00
   0    21    0.100000D+01    0.529791D+00    0.116044D-03    0.499608D+00
   0    22    0.100000D+01    0.532357D+00    0.785616D-03    0.499363D+00
   0    23    0.999998D+00    0.534104D+00    0.392181D-02    0.499194D+00
   0    24    0.999988D+00    0.535297D+00    0.256839D-01    0.499078D+00
   0    25    0.999927D+00    0.536102D+00    0.154427D+00    0.499000D+00
   0    26    0.999568D+00    0.536522D+00    0.934458D+00    0.498959D+00
   0    27    0.997463D+00    0.536183D+00    0.449469D+01    0.498995D+00
   0    28    0.985029D+00    0.533517D+00    0.300098D+02    0.499267D+00
   0    29    0.914493D+00    0.516005D+00    0.146765D+03    0.500940D+00
   0    30    0.574412D+00    0.412607D+00    0.600521D+03    0.509345D+00
   0    31    0.177736D+00    0.195500D+00    0.280540D+03    0.520467D+00
   0    32    0.418078D-01    0.687786D-01    0.622701D+02    0.524850D+00
   0    33    0.912204D-02    0.212511D-01    0.143652D+02    0.526238D+00
   0    34    0.199679D-02    0.607914D-02    0.399893D+01    0.526656D+00
   0    35    0.438826D-03    0.165573D-02    0.789702D+00    0.526775D+00
   0    36    0.953605D-04    0.437882D-03    0.178550D+00    0.526808D+00
   0    37    0.208302D-04    0.113112D-03    0.376646D-01    0.526816D+00
   0    38    0.457807D-05    0.287974D-04    0.732738D-02    0.526819D+00
   0    39    0.983419D-06    0.721732D-05    0.160130D-02    0.526819D+00
   0    40    0.213431D-06    0.178816D-05    0.314230D-03    0.526819D+00
   0    41    0.465442D-07    0.439406D-06    0.780301D-04    0.526819D+00
   0    42    0.995830D-08    0.107129D-06    0.202296D-04    0.526820D+00
   0    43    0.217252D-08    0.259420D-07    0.418735D-05    0.526820D+00
   0    44    0.471718D-09    0.624216D-08    0.918371D-06    0.526820D+00
   0    45    0.101802D-09    0.149350D-08    0.195142D-06    0.526820D+00
   0    46    0.219619D-10    0.355124D-09    0.346977D-07    0.526820D+00
   0    47    0.468925D-11    0.838452D-10    0.862668D-08    0.526820D+00
   0    48    0.994495D-12    0.196602D-10    0.203764D-08    0.526820D+00
   0    49    0.211681D-12    0.457384D-11    0.401177D-09    0.526820D+00
   0    50    0.445465D-13    0.105566D-11    0.728214D-10    0.526820D+00
   0    51    0.922481D-14    0.241531D-12    0.165825D-10    0.526820D+00
   0    52    0.190657D-14    0.547541D-13    0.319099D-11    0.526820D+00
   0    53    0.379839D-15    0.122915D-13    0.711121D-12    0.526820D+00
   0    54    0.780030D-16    0.273005D-14    0.150141D-12    0.526820D+00
   0    55    0.157146D-16    0.600141D-15    0.308989D-13    0.526820D+00
   0    56    0.309004D-17    0.130453D-15    0.553287D-14    0.526820D+00
   0    57    0.601271D-18    0.280248D-16    0.110202D-14    0.526820D+00
   0    58    0.117878D-18    0.594735D-17    0.270712D-15    0.526820D+00
   0    59    0.227288D-19    0.124609D-17    0.407614D-16    0.526820D+00
   0    60    0.424483D-20    0.257704D-18    0.825835D-17    0.526820D+00
   0    61    0.775190D-21    0.525884D-19    0.158317D-17    0.526820D+00
   0    62    0.141044D-21    0.105870D-19    0.331362D-18    0.526820D+00
   0    63    0.256124D-22    0.210261D-20    0.552095D-19    0.526820D+00
   0    64    0.459191D-23    0.411955D-21    0.106018D-19    0.526820D+00
   0    65    0.799152D-24    0.795930D-22    0.182238D-20    0.526820D+00
   0    66    0.136444D-24    0.151620D-22    0.316717D-21    0.526820D+00
   0    67    0.228997D-25    0.284820D-23    0.517996D-22    0.526820D+00
   0    68    0.380667D-26    0.527528D-24    0.102631D-22    0.526820D+00
   0    69    0.628886D-27    0.963307D-25    0.148932D-23    0.526820D+00
   0    70    0.102147D-27    0.173437D-25    0.265049D-24    0.526820D+00
   0    71    0.162074D-28    0.307892D-26    0.435907D-25    0.526820D+00
   0    72    0.250879D-29    0.538888D-27    0.761939D-26    0.526820D+00
   0    73    0.387420D-30    0.930071D-28    0.115707D-26    0.526820D+00
   0    74    0.586753D-31    0.158296D-28    0.183001D-27    0.526820D+00
   0    75    0.888771D-32    0.265709D-29    0.273866D-28    0.526820D+00
   0    76    0.132250D-32    0.439898D-30    0.403149D-29    0.526820D+00
   0    77    0.191419D-33    0.718347D-31    0.550597D-30    0.526820D+00
   0    78    0.272332D-34    0.115720D-31    0.891382D-31    0.526820D+00
   0    79    0.381666D-35    0.183915D-32    0.120757D-31    0.526820D+00
   0    80    0.538951D-36    0.288401D-33    0.153745D-32    0.526820D+00
   0    81    0.741212D-37    0.446278D-34    0.251554D-33    0.526820D+00
   0    82    0.100658D-37    0.681500D-35    0.328503D-34    0.526820D+00
   0    83    0.133948D-38    0.102714D-35    0.483131D-35    0.526820D+00
   0    84    0.177578D-39    0.152803D-36    0.565107D-36    0.526820D+00
   0    85    0.228533D-40    0.224399D-37    0.756148D-37    0.526820D+00
   0    86    0.294612D-41    0.325336D-38    0.104023D-37    0.526820D+00
   0    87    0.372968D-42    0.465705D-39    0.133333D-38    0.526820D+00
   0    88    0.469401D-43    0.658268D-40    0.165280D-39    0.526820D+00
   0    89    0.589618D-44    0.918846D-41    0.203652D-40    0.526820D+00
   0    90    0.714722D-45    0.126669D-41    0.274433D-41    0.526820D+00
   0    91    0.863371D-46    0.172480D-42    0.325975D-42    0.526820D+00
   0    92    0.104390D-46    0.231995D-43    0.394431D-43    0.526820D+00
   0    93    0.121965D-47    0.308274D-44    0.464194D-44    0.526820D+00
   0    94    0.141666D-48    0.404716D-45    0.548640D-45    0.526820D+00
   0    95    0.161556D-49    0.525005D-46    0.682573D-46    0.526820D+00
   0    96    0.185853D-50    0.673002D-47    0.737385D-47    0.526820D+00
   0    97    0.207485D-51    0.852615D-48    0.900495D-48    0.526820D+00
   0    98    0.229476D-52    0.106761D-48    0.983709D-49    0.526820D+00
   0    99    0.250189D-53    0.132140D-49    0.111227D-49    0.526820D+00
   0   100    0.270649D-54    0.161681D-50    0.117698D-50    0.526820D+00
   0   101    0.286924D-55    0.195581D-51    0.121315D-51    0.526820D+00
   0   102    0.303083D-56    0.233925D-52    0.143157D-52    0.526820D+00
   0   103    0.315334D-57    0.276661D-53    0.136630D-53    0.526820D+00
   0   104    0.322983D-58    0.323576D-54    0.147133D-54    0.526820D+00
   0   105    0.331675D-59    0.374284D-55    0.148186D-55    0.526820D+00
   0   106    0.332253D-60    0.428212D-56    0.167476D-56    0.526820D+00
   0   107    0.333586D-61    0.484603D-57    0.154303D-57    0.526820D+00
   0   108    0.326484D-62    0.542524D-58    0.159886D-58    0.526820D+00
   0   109    0.319406D-63    0.600888D-59    0.158125D-59    0.526820D+00
   0   110    0.312185D-64    0.658484D-60    0.153346D-60    0.526820D+00
   0   111    0.297994D-65    0.714018D-61    0.153747D-61    0.526820D+00
   0   112    0.279917D-66    0.766159D-62    0.139587D-62    0.526820D+00
   0   113    0.262041D-67    0.813595D-63    0.131716D-63    0.526820D+00
   0   114    0.241163D-68    0.855089D-64    0.134089D-64    0.526820D+00
   0   115    0.220888D-69    0.889529D-65    0.114051D-65    0.526820D+00
   0   116    0.199304D-70    0.915984D-66    0.113637D-66    0.526820D+00
   0   117    0.180556D-71    0.933740D-67    0.100041D-67    0.526820D+00
   0   118    0.161572D-72    0.942337D-68    0.881886D-69    0.526820D+00
   0   119    0.139449D-73    0.941585D-69    0.814151D-70    0.526820D+00
   0   120    0.122008D-74    0.931572D-70    0.696425D-71    0.526820D+00
   0   121    0.104409D-75    0.912655D-71    0.629653D-72    0.526820D+00
   0   122    0.889956D-77    0.885443D-72    0.528439D-73    0.526820D+00
   0   123    0.750957D-78    0.850760D-73    0.454499D-74    0.526820D+00
   0   124    0.633151D-79    0.809608D-74    0.363829D-75    0.526820D+00
   0   125    0.516682D-80    0.763118D-75    0.314415D-76    0.526820D+00
   0   126    0.428619D-81    0.712503D-76    0.261528D-77    0.526820D+00
   0   127    0.347315D-82    0.659003D-77    0.214769D-78    0.526820D+00
   0   128    0.284292D-83    0.603837D-78    0.175313D-79    0.526820D+00
   0   129    0.225604D-84    0.548166D-79    0.136620D-80    0.526820D+00
   0   130    0.176403D-85    0.493049D-80    0.109464D-81    0.526820D+00
   0   131    0.138019D-86    0.439420D-81    0.881565D-83    0.526820D+00
   0   132    0.107254D-87    0.388067D-82    0.665606D-84    0.526820D+00
   0   133    0.826950D-89    0.339623D-83    0.538903D-85    0.526820D+00
   0   134    0.631314D-90    0.294561D-84    0.401502D-86    0.526820D+00
   0   135    0.470147D-91    0.253202D-85    0.331688D-87    0.526820D+00
   0   136    0.350304D-92    0.215722D-86    0.231114D-88    0.526820D+00
   0   137    0.259171D-93    0.182173D-87    0.176331D-89    0.526820D+00
   0   138    0.190873D-94    0.152496D-88    0.134524D-90    0.526820D+00
   0   139    0.138057D-95    0.126543D-89    0.984941D-92    0.526820D+00
   0   140    0.985322D-97    0.104100D-90    0.702539D-93    0.526820D+00
   0   141    0.712598D-98    0.849023D-92    0.503040D-94    0.526820D+00
   0   142    0.509365D-99    0.686535D-93    0.364070D-95    0.526820D+00
   0   143    0.359442-100    0.550433D-94    0.263208D-96    0.526820D+00
   0   144    0.252419-101    0.437590D-95    0.179114D-97    0.526820D+00
   0   145    0.174467-102    0.344962D-96    0.131674D-98    0.526820D+00
   0   146    0.118836-103    0.269674D-97    0.916919-100    0.526820D+00
   0   147    0.806270-105    0.209069D-98    0.595310-101    0.526820D+00
   0   148    0.543766-106    0.160748D-99    0.426702-102    0.526820D+00
   0   149    0.358457-107    0.122582-100    0.283823-103    0.526820D+00
   0   150    0.238378-108    0.927160-102    0.189609-104    0.526820D+00
   0   151    0.156353-109    0.695580-103    0.124652-105    0.526820D+00
   0   152    0.103063-110    0.517636-104    0.810741-107    0.526820D+00
   0   153    0.664732-112    0.382126-105    0.514268-108    0.526820D+00
   0   154    0.427363-113    0.279841-106    0.337868-109    0.526820D+00
   0   155    0.271161-114    0.203310-107    0.228665-110    0.526820D+00
   0   156    0.171431-115    0.146544-108    0.135829-111    0.526820D+00
   0   157    0.106544-116    0.104799-109    0.881617-113    0.526820D+00
   0   158    0.663912-118    0.743608-111    0.563739-114    0.526820D+00
   0   159    0.410370-119    0.523535-112    0.340802-115    0.526820D+00
   0   160    0.251454-120    0.365748-113    0.209971-116    0.526820D+00
   0   161    0.151634-121    0.253553-114    0.134694-117    0.526820D+00
   0   162    0.909146-123    0.174431-115    0.793224-119    0.526820D+00
   0   163    0.542020-124    0.119087-116    0.461433-120    0.526820D+00
   0   164    0.321238-125    0.806873-118    0.283892-121    0.526820D+00
   0   165    0.189917-126    0.542583-119    0.172311-122    0.526820D+00
   0   166    0.110245-127    0.362128-120    0.972038-124    0.526820D+00
   0   167    0.638271-129    0.239889-121    0.587798-125    0.526820D+00
   0   168    0.372381-130    0.157734-122    0.333814-126    0.526820D+00
   0   169    0.213153-131    0.102950-123    0.189880-127    0.526820D+00
   0   170    0.120404-132    0.666996-125    0.110559-128    0.526820D+00
   0   171    0.671242-134    0.428979-126    0.633018-130    0.526820D+00
   0   172    0.376049-135    0.273891-127    0.344641-131    0.526820D+00
   0   173    0.208699-136    0.173606-128    0.199064-132    0.526820D+00
   0   174    0.114093-137    0.109248-129    0.112416-133    0.526820D+00
   0   175    0.623748-139    0.682550-131    0.615384-135    0.526820D+00
   0   176    0.337103-140    0.423394-132    0.323110-136    0.526820D+00
   0   177    0.182024-141    0.260771-133    0.173096-137    0.526820D+00
   0   178    0.987688-143    0.159475-134    0.962647-139    0.526820D+00
   0   179    0.527113-144    0.968400-136    0.509895-140    0.526820D+00
   0   180    0.277262-145    0.583935-137    0.284232-141    0.526820D+00
   0   181    0.145122-146    0.349650-138    0.149504-142    0.526820D+00
   0   182    0.756998-148    0.207910-139    0.784210-144    0.526820D+00
   0   183    0.394240-149    0.122773-140    0.393826-145    0.526820D+00
   0   184    0.202210-150    0.719996-142    0.207902-146    0.526820D+00
   0   185    0.103110-151    0.419343-143    0.108295-147    0.526820D+00
   0   186    0.523311-153    0.242569-144    0.537011-149    0.526820D+00
   0   187    0.262786-154    0.139360-145    0.283489-150    0.526820D+00
   0   188    0.131242-155    0.795234-147    0.136945-151    0.526820D+00
   0   189    0.645772-157    0.450727-148    0.707907-153    0.526820D+00
   0   190    0.314750-158    0.253751-149    0.336314-154    0.526820D+00
   0   191    0.153219-159    0.141903-150    0.166104-155    0.526820D+00
   0   192    0.746275-161    0.788269-152    0.828672-157    0.526820D+00
   0   193    0.359039-162    0.434980-153    0.399270-158    0.526820D+00
   0   194    0.173167-163    0.238446-154    0.193018-159    0.526820D+00
   0   195    0.830983-165    0.129851-155    0.909534-161    0.526820D+00
   0   196    0.393572-166    0.702502-157    0.451339-162    0.526820D+00
   0   197    0.183232-167    0.377580-158    0.212536-163    0.526820D+00
   0   198    0.858667-169    0.201623-159    0.963271-165    0.526820D+00
   0   199    0.400370-170    0.106968-160    0.450858-166    0.526820D+00
   0   200    0.183181-171    0.563845-162    0.215480-167    0.526820D+00
   0   201    0.843061-173    0.295303-163    0.979244-169    0.526820D+00
   0   202    0.385675-174    0.153671-164    0.455323-170    0.526820D+00
   0   203    0.175069-175    0.794584-166    0.209016-171    0.526820D+00
   0   204    0.781711-177    0.408248-167    0.940665-173    0.526820D+00
   0   205    0.350394-178    0.208427-168    0.410078-174    0.526820D+00
   0   206    0.153158-179    0.105740-169    0.184749-175    0.526820D+00
   0   207    0.670318-181    0.533082-171    0.842004-177    0.526820D+00
   0   208    0.296857-182    0.267070-172    0.351751-178    0.526820D+00
   0   209    0.128973-183    0.132967-173    0.162463-179    0.526820D+00
   0   210    0.557508-185    0.657896-175    0.680700-181    0.526820D+00
   0   211    0.238731-186    0.323503-176    0.293513-182    0.526820D+00
   0   212    0.102760-187    0.158095-177    0.127252-183    0.526820D+00
   0   213    0.437870-189    0.767860-179    0.547566-185    0.526820D+00
   0   214    0.183780-190    0.370666-180    0.233265-186    0.526820D+00
   0   215    0.774507-192    0.177840-181    0.997160-188    0.526820D+00
   0   216    0.324770-193    0.848066-183    0.409668-189    0.526820D+00
   0   217    0.133620-194    0.401971-184    0.173356-190    0.526820D+00
   0   218    0.549996-196    0.189379-185    0.711336-192    0.526820D+00
   0   219    0.224267-197    0.886856-187    0.291760-193    0.526820D+00
   0   220    0.917072-199    0.412824-188    0.120019-194    0.526820D+00
   0   221    0.372478-200    0.191019-189    0.489129-196    0.526820D+00
   0   222    0.148539-201    0.878613-191    0.198345-197    0.526820D+00
   0   223    0.588952-203    0.401732-192    0.798339-199    0.526820D+00
   0   224    0.237572-204    0.182601-193    0.323920-200    0.526820D+00
   0   225    0.937697-206    0.825092-195    0.129853-201    0.526820D+00
   0   226    0.366066-207    0.370635-196    0.500351-203    0.526820D+00
   0   227    0.143442-208    0.165517-197    0.196521-204    0.526820D+00
   0   228    0.555808-210    0.734848-199    0.768875-206    0.526820D+00
   0   229    0.214496-211    0.324356-200    0.304543-207    0.526820D+00
   0   230    0.818308-213    0.142338-201    0.114214-208    0.526820D+00
   0   231    0.312639-214    0.621023-203    0.448980-210    0.526820D+00
   0   232    0.119356-215    0.269392-204    0.172178-211    0.526820D+00
   0   233    0.447759-217    0.116189-205    0.659465-213    0.526820D+00
   0   234    0.168719-218    0.498254-207    0.242073-214    0.526820D+00
   0   235    0.627405-220    0.212448-208    0.901292-216    0.526820D+00
   0   236    0.231133-221    0.900699-210    0.340243-217    0.526820D+00
   0   237    0.858641-223    0.379698-211    0.123641-218    0.526820D+00
   0   238    0.313525-224    0.159160-212    0.473004-220    0.526820D+00
   0   239    0.114183-225    0.663404-214    0.169464-221    0.526820D+00
   0   240    0.410996-227    0.274964-215    0.619816-223    0.526820D+00
   0   241    0.148674-228    0.113327-216    0.221140-224    0.526820D+00
   0   242    0.531599-230    0.464473-218    0.805330-226    0.526820D+00
   0   243    0.189987-231    0.189305-219    0.290542-227    0.526820D+00
   0   244    0.675978-233    0.767268-221    0.102416-228    0.526820D+00
   0   245    0.237245-234    0.309258-222    0.369500-230    0.526820D+00
   0   246    0.826206-236    0.123963-223    0.129980-231    0.526820D+00
   0   247    0.288093-237    0.494160-225    0.454314-233    0.526820D+00
   0   248    0.100350-238    0.195908-226    0.158917-234    0.526820D+00
   0   249    0.345533-240    0.772424-228    0.542023-236    0.526820D+00
   0   250    0.118363-241    0.302888-229    0.186584-237    0.526820D+00
   0   251    0.401276-243    0.118124-230    0.645173-239    0.526820D+00
   0   252    0.135215-244    0.458178-232    0.217875-240    0.526820D+00
   0   253    0.455509-246    0.176755-233    0.731056-242    0.526820D+00
   0   254    0.153814-247    0.678206-235    0.249629-243    0.526820D+00
   0   255    0.513356-249    0.258825-236    0.850568-245    0.526820D+00
   0   256    0.168682-250    0.982461-238    0.280870-246    0.526820D+00
   0   257    0.555378-252    0.370931-239    0.917017-248    0.526820D+00
   0   258    0.182479-253    0.139299-240    0.300573-249    0.526820D+00
   0   259    0.594042-255    0.520334-242    0.101087-250    0.526820D+00
   0   260    0.193907-256    0.193333-243    0.321708-252    0.526820D+00
   0   261    0.624965-258    0.714534-245    0.105653-253    0.526820D+00
   0   262    0.200912-259    0.262688-246    0.338214-255    0.526820D+00
   0   263    0.644073-261    0.960646-248    0.109611-256    0.526820D+00
   0   264    0.203425-262    0.349461-249    0.352349-258    0.526820D+00
   0   265    0.640292-264    0.126460-250    0.111895-259    0.526820D+00
   0   266    0.202013-265    0.455228-252    0.355688-261    0.526820D+00
   0   267    0.634832-267    0.163018-253    0.111618-262    0.526820D+00
   0   268    0.198800-268    0.580732-255    0.346855-264    0.526820D+00
   0   269    0.614424-270    0.205806-256    0.109714-265    0.526820D+00
   0   270    0.188384-271    0.725581-258    0.342941-267    0.526820D+00
   0   271    0.582185-273    0.254487-259    0.102962-268    0.526820D+00
   0   272    0.176400-274    0.887979-261    0.322484-270    0.526820D+00
   0   273    0.532533-276    0.308250-262    0.975254-272    0.526820D+00
   0   274    0.160325-277    0.106456-263    0.294581-273    0.526820D+00
   0   275    0.484269-279    0.365774-265    0.879609-275    0.526820D+00
   0   276    0.144209-280    0.125036-266    0.266969-276    0.526820D+00
   0   277    0.429603-282    0.425245-268    0.802597-278    0.526820D+00
   0   278    0.128027-283    0.143891-269    0.239809-279    0.526820D+00
   0   279    0.373609-285    0.484420-271    0.709860-281    0.526820D+00
   0   280    0.109885-286    0.162260-272    0.206614-282    0.526820D+00
   0   281    0.318863-288    0.540759-274    0.604357-284    0.526820D+00
   0   282    0.930914-290    0.179311-275    0.174308-285    0.526820D+00
   0   283    0.268537-291    0.591594-277    0.519568-287    0.526820D+00
   0   284    0.764149-293    0.194205-278    0.148206-288    0.526820D+00
   0   285    0.218132-294    0.634341-280    0.424896-290    0.526820D+00
   0   286    0.618330-296    0.206165-281    0.121401-291    0.526820D+00
   0   287    0.174619-297    0.666714-283    0.340880-293    0.526820D+00
   0   288    0.493085-299    0.214538-284    0.972623-295    0.526820D+00
   0   289    0.137008-300    0.686930-286    0.271121-296    0.526820D+00
   0   290    0.381272-302    0.218861-287    0.749140-298    0.526820D+00
   0   291    0.105966-303    0.693872-289    0.210476-299    0.526820D+00
   0   292    0.293514-305    0.218900-290    0.593570-301    0.526820D+00
   0   293    0.807902-307    0.687189-292    0.164482-302    0.526820D+00
   0   294    0.220771-308    0.214671-293    0.442805-304    0.526820D+00
   0   295    0.601221-310    0.667330-295    0.120782-305    0.526820D+00
   0   296    0.161704-311    0.206435-296    0.334205-307    0.526820D+00
   0   297    0.434058-313    0.635489-298    0.903321-309    0.526820D+00
   0   298    0.115140-314    0.194678-299    0.243617-310    0.526820D+00
   0   299    0.306836-316    0.593489-301    0.642213-312    0.526820D+00
   0   300    0.814571-318    0.180054-302    0.170285-313    0.526820D+00
   0   301    0.213930-319    0.543614-304    0.452070-315    0.526820D+00
   0   302    0.000000D+00    0.163335-305    0.232211-316    0.526820D+00
   0   303    0.000000D+00    0.488399-307    0.000000D+00    0.526820D+00
   0   304    0.000000D+00    0.145338-308    0.000000D+00    0.526820D+00
   0   305    0.000000D+00    0.430426-310    0.000000D+00    0.526820D+00
   0   306    0.000000D+00    0.126863-311    0.000000D+00    0.526820D+00
   0   307    0.000000D+00    0.372130-313    0.000000D+00    0.526820D+00
   0   308    0.000000D+00    0.108638-314    0.000000D+00    0.526820D+00
   0   309    0.000000D+00    0.315643-316    0.000000D+00    0.526820D+00
   0   310    0.000000D+00    0.912727-318    0.000000D+00    0.526820D+00
   0   311    0.000000D+00    0.262695-319    0.000000D+00    0.526820D+00
   0   312    0.000000D+00    0.746039-321    0.000000D+00    0.526820D+00
   0   313    0.000000D+00    0.148220-322    0.000000D+00    0.526820D+00
   0   314    0.000000D+00    0.000000D+00    0.000000D+00    0.526820D+00
   0   315    0.000000D+00    0.000000D+00    0.000000D+00    0.526820D+00
   0   316    0.000000D+00    0.000000D+00    0.000000D+00    0.526820D+00
   0   317    0.000000D+00    0.000000D+00    0.000000D+00    0.526820D+00
   0   318    0.000000D+00    0.000000D+00    0.000000D+00    0.526820D+00
   0   319    0.000000D+00    0.000000D+00    0.000000D+00    0.526820D+00
   0   320    0.000000D+00    0.000000D+00    0.000000D+00    0.526820D+00
   0   321    0.000000D+00    0.000000D+00    0.000000D+00    0.526820D+00
   0   322    0.000000D+00    0.000000D+00    0.000000D+00    0.526820D+00
   0   323    0.000000D+00    0.000000D+00    0.000000D+00    0.526820D+00
   0   324    0.000000D+00    0.000000D+00    0.000000D+00    0.526820D+00
   0   325    0.000000D+00    0.000000D+00    0.000000D+00    0.526820D+00
   0   326    0.000000D+00    0.000000D+00    0.000000D+00    0.526820D+00
   0   327    0.000000D+00    0.000000D+00    0.000000D+00    0.526820D+00
   0   328    0.000000D+00    0.000000D+00    0.000000D+00    0.526820D+00
   0   329    0.000000D+00    0.000000D+00    0.000000D+00    0.526820D+00
   0   330    0.000000D+00    0.000000D+00    0.000000D+00    0.526820D+00
   0   331    0.000000D+00    0.000000D+00    0.000000D+00    0.526820D+00
   0   332    0.000000D+00    0.000000D+00    0.000000D+00    0.526820D+00
   0   333    0.000000D+00    0.000000D+00    0.000000D+00    0.526820D+00
   0   334    0.000000D+00    0.000000D+00    0.000000D+00    0.526820D+00
   0   335    0.000000D+00    0.000000D+00    0.000000D+00    0.526820D+00
   0   336    0.000000D+00    0.000000D+00    0.000000D+00    0.526820D+00
   0   337    0.000000D+00    0.000000D+00    0.000000D+00    0.526820D+00
   0   338    0.000000D+00    0.000000D+00    0.000000D+00    0.526820D+00
   0   339    0.000000D+00    0.000000D+00    0.000000D+00    0.526820D+00
   0   340    0.000000D+00    0.000000D+00    0.000000D+00    0.526820D+00
   0   341    0.000000D+00    0.000000D+00    0.000000D+00    0.526820D+00
   0   342    0.000000D+00    0.000000D+00    0.000000D+00    0.526820D+00
   0   343    0.000000D+00    0.000000D+00    0.000000D+00    0.526820D+00
   0   344    0.000000D+00    0.000000D+00    0.000000D+00    0.526820D+00
   0   345    0.000000D+00    0.000000D+00    0.000000D+00    0.526820D+00
   0   346    0.000000D+00    0.000000D+00    0.000000D+00    0.526820D+00
   0   347    0.000000D+00    0.000000D+00    0.000000D+00    0.526820D+00
   0   348    0.000000D+00    0.000000D+00    0.000000D+00    0.526820D+00
   0   349    0.000000D+00    0.000000D+00    0.000000D+00    0.526820D+00
   0   350    0.000000D+00    0.000000D+00    0.000000D+00    0.526820D+00
   0   351    0.000000D+00    0.000000D+00    0.000000D+00    0.526820D+00
   0   352    0.000000D+00    0.000000D+00    0.000000D+00    0.526820D+00
   0   353    0.000000D+00    0.000000D+00    0.000000D+00    0.526820D+00
   0   354    0.000000D+00    0.000000D+00    0.000000D+00    0.526820D+00
   0   355    0.000000D+00    0.000000D+00    0.000000D+00    0.526820D+00
   0   356    0.000000D+00    0.000000D+00    0.000000D+00    0.526820D+00
   0   357    0.000000D+00    0.000000D+00    0.000000D+00    0.526820D+00
   0   358    0.000000D+00    0.000000D+00    0.000000D+00    0.526820D+00
   0   359    0.000000D+00    0.000000D+00    0.000000D+00    0.526820D+00
   0   360    0.000000D+00    0.000000D+00    0.000000D+00    0.526820D+00
   0   361    0.000000D+00    0.000000D+00    0.000000D+00    0.526820D+00
   0   362    0.000000D+00    0.000000D+00    0.000000D+00    0.526820D+00
   0   363    0.000000D+00    0.000000D+00    0.000000D+00    0.526820D+00
   0   364    0.000000D+00    0.000000D+00    0.000000D+00    0.526820D+00
   0   365    0.000000D+00    0.000000D+00    0.000000D+00    0.526820D+00
   0   366    0.000000D+00    0.000000D+00    0.000000D+00    0.526820D+00
   0   367    0.000000D+00    0.000000D+00    0.000000D+00    0.526820D+00
   0   368    0.000000D+00    0.000000D+00    0.000000D+00    0.526820D+00
   0   369    0.000000D+00    0.000000D+00    0.000000D+00    0.526820D+00
   0   370    0.000000D+00    0.000000D+00    0.000000D+00    0.526820D+00
   0   371    0.000000D+00    0.000000D+00    0.000000D+00    0.526820D+00
   0   372    0.000000D+00    0.000000D+00    0.000000D+00    0.526820D+00
   0   373    0.000000D+00    0.000000D+00    0.000000D+00    0.526820D+00
   0   374    0.000000D+00    0.000000D+00    0.000000D+00    0.526820D+00
   0   375    0.000000D+00    0.000000D+00    0.000000D+00    0.526820D+00
   0   376    0.000000D+00    0.000000D+00    0.000000D+00    0.526820D+00
   0   377    0.000000D+00    0.000000D+00    0.000000D+00    0.526820D+00
   0   378    0.000000D+00    0.000000D+00    0.000000D+00    0.526820D+00
   0   379    0.000000D+00    0.000000D+00    0.000000D+00    0.526820D+00
   0   380    0.000000D+00    0.000000D+00    0.000000D+00    0.526820D+00
   0   381    0.000000D+00    0.000000D+00    0.000000D+00    0.526820D+00
   0   382    0.000000D+00    0.000000D+00    0.000000D+00    0.526820D+00
   0   383    0.000000D+00    0.000000D+00    0.000000D+00    0.526820D+00
   0   384    0.000000D+00    0.000000D+00    0.000000D+00    0.526820D+00
   0   385    0.000000D+00    0.000000D+00    0.000000D+00    0.526820D+00
   0   386    0.000000D+00    0.000000D+00    0.000000D+00    0.526820D+00
   0   387    0.000000D+00    0.000000D+00    0.000000D+00    0.526820D+00
   0   388    0.000000D+00    0.000000D+00    0.000000D+00    0.526820D+00
   0   389    0.000000D+00    0.000000D+00    0.000000D+00    0.526820D+00
   0   390    0.000000D+00    0.000000D+00    0.000000D+00    0.526820D+00
   0   391    0.000000D+00    0.000000D+00    0.000000D+00    0.526820D+00
   0   392    0.000000D+00    0.000000D+00    0.000000D+00    0.526820D+00
   0   393    0.000000D+00    0.000000D+00    0.000000D+00    0.526820D+00
   0   394    0.000000D+00    0.000000D+00    0.000000D+00    0.526820D+00
   0   395    0.000000D+00    0.000000D+00    0.000000D+00    0.526820D+00
   0   396    0.000000D+00    0.000000D+00    0.000000D+00    0.526820D+00
   0   397    0.000000D+00    0.000000D+00    0.000000D+00    0.526820D+00