variables =  "IG"  "JG"  "PHI"  "Temp."  "Latent_heat"  "mm"
ZONE  I=  401  J=  101
   0     0    0.100000D+01    0.416549D+00    0.000000D+00    0.508754D+00
   0     1    0.100000D+01    0.416549D+00    0.000000D+00    0.508754D+00
   0     2    0.100000D+01    0.416843D+00    0.000000D+00    0.508734D+00
   0     3    0.100000D+01    0.417428D+00    0.000000D+00    0.508693D+00
   0     4    0.100000D+01    0.418302D+00    0.000000D+00    0.508634D+00
   0     5    0.100000D+01    0.419458D+00    0.000000D+00    0.508554D+00
   0     6    0.100000D+01    0.420890D+00    0.000000D+00    0.508456D+00
   0     7    0.100000D+01    0.422587D+00    0.000000D+00    0.508338D+00
   0     8    0.100000D+01    0.424539D+00    0.000000D+00    0.508202D+00
   0     9    0.100000D+01    0.426735D+00    0.000000D+00    0.508049D+00
   0    10    0.100000D+01    0.429159D+00    0.000000D+00    0.507878D+00
   0    11    0.100000D+01    0.431798D+00    0.000000D+00    0.507691D+00
   0    12    0.100000D+01    0.434636D+00    0.000000D+00    0.507488D+00
   0    13    0.100000D+01    0.437656D+00    0.000000D+00    0.507271D+00
   0    14    0.100000D+01    0.440839D+00    0.000000D+00    0.507039D+00
   0    15    0.100000D+01    0.444169D+00    0.000000D+00    0.506795D+00
   0    16    0.100000D+01    0.447627D+00    0.000000D+00    0.506539D+00
   0    17    0.100000D+01    0.451193D+00    0.000000D+00    0.506272D+00
   0    18    0.100000D+01    0.454849D+00    0.000000D+00    0.505996D+00
   0    19    0.100000D+01    0.458576D+00    0.000000D+00    0.505711D+00
   0    20    0.100000D+01    0.462355D+00    0.000000D+00    0.505419D+00
   0    21    0.100000D+01    0.466169D+00    0.000000D+00    0.505121D+00
   0    22    0.100000D+01    0.470000D+00    0.000000D+00    0.504818D+00
   0    23    0.100000D+01    0.473830D+00    0.000000D+00    0.504512D+00
   0    24    0.100000D+01    0.477644D+00    0.000000D+00    0.504204D+00
   0    25    0.100000D+01    0.481426D+00    0.000000D+00    0.503895D+00
   0    26    0.100000D+01    0.485162D+00    0.000000D+00    0.503586D+00
   0    27    0.100000D+01    0.488839D+00    0.000000D+00    0.503279D+00
   0    28    0.100000D+01    0.492444D+00    0.000000D+00    0.502974D+00
   0    29    0.100000D+01    0.495967D+00    0.000000D+00    0.502673D+00
   0    30    0.100000D+01    0.499397D+00    0.000000D+00    0.502377D+00
   0    31    0.100000D+01    0.502725D+00    0.000000D+00    0.502086D+00
   0    32    0.100000D+01    0.505945D+00    0.000000D+00    0.501803D+00
   0    33    0.100000D+01    0.509049D+00    0.000000D+00    0.501526D+00
   0    34    0.100000D+01    0.512033D+00    0.000000D+00    0.501258D+00
   0    35    0.100000D+01    0.514892D+00    0.000000D+00    0.500999D+00
   0    36    0.100000D+01    0.517623D+00    0.000000D+00    0.500749D+00
   0    37    0.100000D+01    0.520225D+00    0.000000D+00    0.500509D+00
   0    38    0.100000D+01    0.522695D+00    0.000000D+00    0.500279D+00
   0    39    0.100000D+01    0.525034D+00    0.000000D+00    0.500059D+00
   0    40    0.100000D+01    0.527243D+00    0.000000D+00    0.499851D+00
   0    41    0.100000D+01    0.529323D+00    0.000000D+00    0.499653D+00
   0    42    0.100000D+01    0.531276D+00    0.000000D+00    0.499466D+00
   0    43    0.100000D+01    0.533105D+00    0.000000D+00    0.499290D+00
   0    44    0.100000D+01    0.534812D+00    0.000000D+00    0.499124D+00
   0    45    0.100000D+01    0.536403D+00    0.000000D+00    0.498970D+00
   0    46    0.100000D+01    0.537880D+00    0.000000D+00    0.498825D+00
   0    47    0.100000D+01    0.539248D+00    0.000000D+00    0.498690D+00
   0    48    0.100000D+01    0.540512D+00    0.000000D+00    0.498566D+00
   0    49    0.100000D+01    0.541677D+00    0.000000D+00    0.498450D+00
   0    50    0.100000D+01    0.542748D+00    0.000000D+00    0.498343D+00
   0    51    0.100000D+01    0.543730D+00    0.000000D+00    0.498245D+00
   0    52    0.100000D+01    0.544628D+00    0.000000D+00    0.498156D+00
   0    53    0.100000D+01    0.545447D+00    0.000000D+00    0.498073D+00
   0    54    0.100000D+01    0.546192D+00    0.000000D+00    0.497998D+00
   0    55    0.100000D+01    0.546869D+00    0.000000D+00    0.497930D+00
   0    56    0.100000D+01    0.547481D+00    0.000000D+00    0.497868D+00
   0    57    0.100000D+01    0.548034D+00    0.000000D+00    0.497812D+00
   0    58    0.100000D+01    0.548532D+00    0.000000D+00    0.497761D+00
   0    59    0.100000D+01    0.548980D+00    0.000000D+00    0.497716D+00
   0    60    0.100000D+01    0.549382D+00    0.000000D+00    0.497675D+00
   0    61    0.100000D+01    0.549741D+00    0.000000D+00    0.497638D+00
   0    62    0.100000D+01    0.550062D+00    0.000000D+00    0.497605D+00
   0    63    0.100000D+01    0.550347D+00    0.000000D+00    0.497576D+00
   0    64    0.100000D+01    0.550600D+00    0.000000D+00    0.497550D+00
   0    65    0.100000D+01    0.550825D+00    0.000000D+00    0.497527D+00
   0    66    0.100000D+01    0.551024D+00    0.000000D+00    0.497507D+00
   0    67    0.100000D+01    0.551199D+00    0.000000D+00    0.497489D+00
   0    68    0.100000D+01    0.551353D+00    0.000000D+00    0.497473D+00
   0    69    0.100000D+01    0.551489D+00    0.000000D+00    0.497459D+00
   0    70    0.100000D+01    0.551607D+00    0.000000D+00    0.497447D+00
   0    71    0.100000D+01    0.551711D+00    0.000000D+00    0.497437D+00
   0    72    0.100000D+01    0.551802D+00    0.000000D+00    0.497427D+00
   0    73    0.100000D+01    0.551880D+00    0.000000D+00    0.497419D+00
   0    74    0.100000D+01    0.551949D+00    0.000000D+00    0.497412D+00
   0    75    0.100000D+01    0.552008D+00    0.000000D+00    0.497406D+00
   0    76    0.100000D+01    0.552060D+00    0.000000D+00    0.497401D+00
   0    77    0.100000D+01    0.552104D+00    0.000000D+00    0.497396D+00
   0    78    0.100000D+01    0.552143D+00    0.000000D+00    0.497392D+00
   0    79    0.100000D+01    0.552176D+00    0.000000D+00    0.497389D+00
   0    80    0.100000D+01    0.552204D+00    0.000000D+00    0.497386D+00
   0    81    0.100000D+01    0.552229D+00    0.000000D+00    0.497383D+00
   0    82    0.100000D+01    0.552250D+00    0.000000D+00    0.497381D+00
   0    83    0.100000D+01    0.552268D+00    0.000000D+00    0.497379D+00
   0    84    0.100000D+01    0.552283D+00    0.000000D+00    0.497378D+00
   0    85    0.100000D+01    0.552296D+00    0.000000D+00    0.497376D+00
   0    86    0.100000D+01    0.552307D+00    0.000000D+00    0.497375D+00
   0    87    0.100000D+01    0.552317D+00    0.000000D+00    0.497374D+00
   0    88    0.100000D+01    0.552325D+00    0.000000D+00    0.497373D+00
   0    89    0.100000D+01    0.552332D+00    0.000000D+00    0.497373D+00
   0    90    0.100000D+01    0.552338D+00    0.000000D+00    0.497372D+00
   0    91    0.100000D+01    0.552344D+00    0.000000D+00    0.497371D+00
   0    92    0.100000D+01    0.552348D+00    0.000000D+00    0.497371D+00
   0    93    0.100000D+01    0.552352D+00    0.000000D+00    0.497371D+00
   0    94    0.100000D+01    0.552355D+00    0.000000D+00    0.497370D+00
   0    95    0.100000D+01    0.552358D+00    0.000000D+00    0.497370D+00
   0    96    0.100000D+01    0.552361D+00    0.000000D+00    0.497370D+00
   0    97    0.100000D+01    0.552363D+00    0.000000D+00    0.497369D+00
   0    98    0.100000D+01    0.552365D+00    0.000000D+00    0.497369D+00
   0    99    0.100000D+01    0.552367D+00    0.000000D+00    0.497369D+00
   0   100    0.100000D+01    0.552368D+00    0.000000D+00    0.497369D+00
   0   101    0.100000D+01    0.552370D+00    0.000000D+00    0.497369D+00
   0   102    0.100000D+01    0.552371D+00    0.000000D+00    0.497369D+00
   0   103    0.100000D+01    0.552372D+00    0.000000D+00    0.497369D+00
   0   104    0.100000D+01    0.552373D+00    0.000000D+00    0.497368D+00
   0   105    0.100000D+01    0.552374D+00    0.000000D+00    0.497368D+00
   0   106    0.100000D+01    0.552375D+00    0.000000D+00    0.497368D+00
   0   107    0.100000D+01    0.552376D+00    0.000000D+00    0.497368D+00
   0   108    0.100000D+01    0.552377D+00    0.000000D+00    0.497368D+00
   0   109    0.100000D+01    0.552378D+00    0.000000D+00    0.497368D+00
   0   110    0.100000D+01    0.552379D+00    0.000000D+00    0.497368D+00
   0   111    0.100000D+01    0.552380D+00    0.000000D+00    0.497368D+00
   0   112    0.100000D+01    0.552381D+00    0.000000D+00    0.497368D+00
   0   113    0.100000D+01    0.552381D+00    0.000000D+00    0.497368D+00
   0   114    0.100000D+01    0.552382D+00    0.000000D+00    0.497368D+00
   0   115    0.100000D+01    0.552383D+00    0.000000D+00    0.497367D+00
   0   116    0.100000D+01    0.552384D+00    0.000000D+00    0.497367D+00
   0   117    0.100000D+01    0.552384D+00    0.000000D+00    0.497367D+00
   0   118    0.100000D+01    0.552385D+00    0.000000D+00    0.497367D+00
   0   119    0.100000D+01    0.552386D+00    0.000000D+00    0.497367D+00
   0   120    0.100000D+01    0.552387D+00    0.000000D+00    0.497367D+00
   0   121    0.100000D+01    0.552387D+00    0.000000D+00    0.497367D+00
   0   122    0.100000D+01    0.552388D+00    0.000000D+00    0.497367D+00
   0   123    0.100000D+01    0.552389D+00    0.000000D+00    0.497367D+00
   0   124    0.100000D+01    0.552390D+00    0.000000D+00    0.497367D+00
   0   125    0.100000D+01    0.552390D+00    0.000000D+00    0.497367D+00
   0   126    0.100000D+01    0.552391D+00    0.000000D+00    0.497367D+00
   0   127    0.100000D+01    0.552392D+00    0.000000D+00    0.497367D+00
   0   128    0.100000D+01    0.552393D+00    0.000000D+00    0.497366D+00
   0   129    0.100000D+01    0.552394D+00    0.000000D+00    0.497366D+00
   0   130    0.100000D+01    0.552395D+00    0.000000D+00    0.497366D+00
   0   131    0.100000D+01    0.552395D+00    0.000000D+00    0.497366D+00
   0   132    0.100000D+01    0.552396D+00    0.000000D+00    0.497366D+00
   0   133    0.100000D+01    0.552397D+00    0.000000D+00    0.497366D+00
   0   134    0.100000D+01    0.552398D+00    0.000000D+00    0.497366D+00
   0   135    0.100000D+01    0.552399D+00    0.000000D+00    0.497366D+00
   0   136    0.100000D+01    0.552399D+00    0.000000D+00    0.497366D+00
   0   137    0.100000D+01    0.552400D+00    0.000000D+00    0.497366D+00
   0   138    0.100000D+01    0.552401D+00    0.000000D+00    0.497366D+00
   0   139    0.100000D+01    0.552402D+00    0.000000D+00    0.497366D+00
   0   140    0.100000D+01    0.552402D+00    0.000000D+00    0.497365D+00
   0   141    0.100000D+01    0.552403D+00    0.000000D+00    0.497365D+00
   0   142    0.100000D+01    0.552404D+00    0.000000D+00    0.497365D+00
   0   143    0.100000D+01    0.552404D+00    0.000000D+00    0.497365D+00
   0   144    0.100000D+01    0.552405D+00    0.000000D+00    0.497365D+00
   0   145    0.100000D+01    0.552405D+00    0.000000D+00    0.497365D+00
   0   146    0.100000D+01    0.552406D+00    0.000000D+00    0.497365D+00
   0   147    0.100000D+01    0.552406D+00    0.000000D+00    0.497365D+00
   0   148    0.100000D+01    0.552407D+00    0.000000D+00    0.497365D+00
   0   149    0.100000D+01    0.552407D+00    0.000000D+00    0.497365D+00
   0   150    0.100000D+01    0.552407D+00    0.000000D+00    0.497365D+00
   0   151    0.100000D+01    0.552408D+00    0.000000D+00    0.497365D+00
   0   152    0.100000D+01    0.552408D+00    0.000000D+00    0.497365D+00
   0   153    0.100000D+01    0.552408D+00    0.000000D+00    0.497365D+00
   0   154    0.100000D+01    0.552408D+00    0.000000D+00    0.497365D+00
   0   155    0.100000D+01    0.552408D+00    0.000000D+00    0.497365D+00
   0   156    0.100000D+01    0.552408D+00    0.000000D+00    0.497365D+00
   0   157    0.100000D+01    0.552409D+00    0.000000D+00    0.497365D+00
   0   158    0.100000D+01    0.552409D+00    0.000000D+00    0.497365D+00
   0   159    0.100000D+01    0.552408D+00    0.000000D+00    0.497365D+00
   0   160    0.100000D+01    0.552408D+00    0.000000D+00    0.497365D+00
   0   161    0.100000D+01    0.552408D+00    0.000000D+00    0.497365D+00
   0   162    0.100000D+01    0.552408D+00    0.000000D+00    0.497365D+00
   0   163    0.100000D+01    0.552408D+00    0.000000D+00    0.497365D+00
   0   164    0.100000D+01    0.552408D+00    0.000000D+00    0.497365D+00
   0   165    0.100000D+01    0.552408D+00    0.000000D+00    0.497365D+00
   0   166    0.100000D+01    0.552408D+00    0.000000D+00    0.497365D+00
   0   167    0.100000D+01    0.552408D+00    0.000000D+00    0.497365D+00
   0   168    0.100000D+01    0.552407D+00    0.000000D+00    0.497365D+00
   0   169    0.100000D+01    0.552407D+00    0.000000D+00    0.497365D+00
   0   170    0.100000D+01    0.552407D+00    0.000000D+00    0.497365D+00
   0   171    0.100000D+01    0.552407D+00    0.000000D+00    0.497365D+00
   0   172    0.100000D+01    0.552407D+00    0.000000D+00    0.497365D+00
   0   173    0.100000D+01    0.552407D+00    0.000000D+00    0.497365D+00
   0   174    0.100000D+01    0.552407D+00    0.000000D+00    0.497365D+00
   0   175    0.100000D+01    0.552407D+00    0.000000D+00    0.497365D+00
   0   176    0.100000D+01    0.552407D+00    0.000000D+00    0.497365D+00
   0   177    0.100000D+01    0.552407D+00    0.000000D+00    0.497365D+00
   0   178    0.100000D+01    0.552408D+00    0.000000D+00    0.497365D+00
   0   179    0.100000D+01    0.552408D+00    0.000000D+00    0.497365D+00
   0   180    0.100000D+01    0.552408D+00    0.000000D+00    0.497365D+00
   0   181    0.100000D+01    0.552409D+00    0.000000D+00    0.497365D+00
   0   182    0.100000D+01    0.552409D+00    0.000000D+00    0.497365D+00
   0   183    0.100000D+01    0.552410D+00    0.000000D+00    0.497365D+00
   0   184    0.100000D+01    0.552410D+00    0.000000D+00    0.497365D+00
   0   185    0.100000D+01    0.552411D+00    0.000000D+00    0.497365D+00
   0   186    0.100000D+01    0.552411D+00    0.000000D+00    0.497364D+00
   0   187    0.100000D+01    0.552412D+00    0.000000D+00    0.497364D+00
   0   188    0.100000D+01    0.552413D+00    0.000000D+00    0.497364D+00
   0   189    0.100000D+01    0.552414D+00    0.000000D+00    0.497364D+00
   0   190    0.100000D+01    0.552415D+00    0.000000D+00    0.497364D+00
   0   191    0.100000D+01    0.552416D+00    0.000000D+00    0.497364D+00
   0   192    0.100000D+01    0.552417D+00    0.000000D+00    0.497364D+00
   0   193    0.100000D+01    0.552418D+00    0.000000D+00    0.497364D+00
   0   194    0.100000D+01    0.552419D+00    0.000000D+00    0.497364D+00
   0   195    0.100000D+01    0.552420D+00    0.000000D+00    0.497364D+00
   0   196    0.100000D+01    0.552421D+00    0.000000D+00    0.497364D+00
   0   197    0.100000D+01    0.552422D+00    0.000000D+00    0.497363D+00
   0   198    0.100000D+01    0.552423D+00    0.000000D+00    0.497363D+00
   0   199    0.100000D+01    0.552424D+00    0.000000D+00    0.497363D+00
   0   200    0.100000D+01    0.552425D+00    0.000000D+00    0.497363D+00
   0   201    0.100000D+01    0.552426D+00    0.000000D+00    0.497363D+00
   0   202    0.100000D+01    0.552426D+00    0.000000D+00    0.497363D+00
   0   203    0.100000D+01    0.552427D+00    0.000000D+00    0.497363D+00
   0   204    0.100000D+01    0.552428D+00    0.000000D+00    0.497363D+00
   0   205    0.100000D+01    0.552428D+00    0.000000D+00    0.497363D+00
   0   206    0.100000D+01    0.552429D+00    0.000000D+00    0.497363D+00
   0   207    0.100000D+01    0.552429D+00    0.000000D+00    0.497363D+00
   0   208    0.100000D+01    0.552430D+00    0.000000D+00    0.497363D+00
   0   209    0.100000D+01    0.552430D+00    0.000000D+00    0.497363D+00
   0   210    0.100000D+01    0.552430D+00    0.000000D+00    0.497363D+00
   0   211    0.100000D+01    0.552430D+00    0.000000D+00    0.497363D+00
   0   212    0.100000D+01    0.552430D+00    0.000000D+00    0.497363D+00
   0   213    0.100000D+01    0.552430D+00    0.000000D+00    0.497363D+00
   0   214    0.100000D+01    0.552430D+00    0.000000D+00    0.497363D+00
   0   215    0.100000D+01    0.552430D+00    0.000000D+00    0.497363D+00
   0   216    0.100000D+01    0.552430D+00    0.000000D+00    0.497363D+00
   0   217    0.100000D+01    0.552430D+00    0.000000D+00    0.497363D+00
   0   218    0.100000D+01    0.552431D+00    0.000000D+00    0.497363D+00
   0   219    0.100000D+01    0.552431D+00    0.000000D+00    0.497363D+00
   0   220    0.100000D+01    0.552431D+00    0.000000D+00    0.497362D+00
   0   221    0.100000D+01    0.552431D+00    0.000000D+00    0.497362D+00
   0   222    0.100000D+01    0.552432D+00    0.000000D+00    0.497362D+00
   0   223    0.100000D+01    0.552432D+00    0.000000D+00    0.497362D+00
   0   224    0.100000D+01    0.552433D+00    0.000000D+00    0.497362D+00
   0   225    0.100000D+01    0.552434D+00    0.000000D+00    0.497362D+00
   0   226    0.100000D+01    0.552435D+00    0.000000D+00    0.497362D+00
   0   227    0.100000D+01    0.552436D+00    0.000000D+00    0.497362D+00
   0   228    0.100000D+01    0.552437D+00    0.000000D+00    0.497362D+00
   0   229    0.100000D+01    0.552439D+00    0.000000D+00    0.497362D+00
   0   230    0.100000D+01    0.552440D+00    0.000000D+00    0.497362D+00
   0   231    0.100000D+01    0.552442D+00    0.000000D+00    0.497361D+00
   0   232    0.100000D+01    0.552443D+00    0.000000D+00    0.497361D+00
   0   233    0.100000D+01    0.552445D+00    0.000000D+00    0.497361D+00
   0   234    0.100000D+01    0.552447D+00    0.000000D+00    0.497361D+00
   0   235    0.100000D+01    0.552449D+00    0.000000D+00    0.497361D+00
   0   236    0.100000D+01    0.552451D+00    0.000000D+00    0.497360D+00
   0   237    0.100000D+01    0.552453D+00    0.000000D+00    0.497360D+00
   0   238    0.100000D+01    0.552455D+00    0.000000D+00    0.497360D+00
   0   239    0.100000D+01    0.552457D+00    0.000000D+00    0.497360D+00
   0   240    0.100000D+01    0.552459D+00    0.000000D+00    0.497360D+00
   0   241    0.100000D+01    0.552460D+00    0.000000D+00    0.497359D+00
   0   242    0.100000D+01    0.552462D+00    0.000000D+00    0.497359D+00
   0   243    0.100000D+01    0.552463D+00    0.000000D+00    0.497359D+00
   0   244    0.100000D+01    0.552465D+00    0.000000D+00    0.497359D+00
   0   245    0.100000D+01    0.552466D+00    0.000000D+00    0.497359D+00
   0   246    0.100000D+01    0.552466D+00    0.000000D+00    0.497359D+00
   0   247    0.100000D+01    0.552467D+00    0.000000D+00    0.497359D+00
   0   248    0.100000D+01    0.552468D+00    0.000000D+00    0.497359D+00
   0   249    0.100000D+01    0.552468D+00    0.000000D+00    0.497359D+00
   0   250    0.100000D+01    0.552468D+00    0.000000D+00    0.497359D+00
   0   251    0.100000D+01    0.552468D+00    0.000000D+00    0.497359D+00
   0   252    0.100000D+01    0.552468D+00    0.000000D+00    0.497359D+00
   0   253    0.100000D+01    0.552467D+00    0.000000D+00    0.497359D+00
   0   254    0.100000D+01    0.552467D+00    0.000000D+00    0.497359D+00
   0   255    0.100000D+01    0.552466D+00    0.000000D+00    0.497359D+00
   0   256    0.100000D+01    0.552466D+00    0.000000D+00    0.497359D+00
   0   257    0.100000D+01    0.552465D+00    0.000000D+00    0.497359D+00
   0   258    0.100000D+01    0.552464D+00    0.000000D+00    0.497359D+00
   0   259    0.100000D+01    0.552464D+00    0.000000D+00    0.497359D+00
   0   260    0.100000D+01    0.552463D+00    0.000000D+00    0.497359D+00
   0   261    0.100000D+01    0.552463D+00    0.000000D+00    0.497359D+00
   0   262    0.100000D+01    0.552462D+00    0.000000D+00    0.497359D+00
   0   263    0.100000D+01    0.552462D+00    0.000000D+00    0.497359D+00
   0   264    0.100000D+01    0.552461D+00    0.000000D+00    0.497359D+00
   0   265    0.100000D+01    0.552461D+00    0.000000D+00    0.497359D+00
   0   266    0.100000D+01    0.552461D+00    0.000000D+00    0.497359D+00
   0   267    0.100000D+01    0.552461D+00    0.000000D+00    0.497359D+00
   0   268    0.100000D+01    0.552461D+00    0.000000D+00    0.497359D+00
   0   269    0.100000D+01    0.552462D+00    0.000000D+00    0.497359D+00
   0   270    0.100000D+01    0.552462D+00    0.000000D+00    0.497359D+00
   0   271    0.100000D+01    0.552462D+00    0.000000D+00    0.497359D+00
   0   272    0.100000D+01    0.552462D+00    0.000000D+00    0.497359D+00
   0   273    0.100000D+01    0.552463D+00    0.000000D+00    0.497359D+00
   0   274    0.100000D+01    0.552463D+00    0.000000D+00    0.497359D+00
   0   275    0.100000D+01    0.552463D+00    0.000000D+00    0.497359D+00
   0   276    0.100000D+01    0.552464D+00    0.000000D+00    0.497359D+00
   0   277    0.100000D+01    0.552464D+00    0.000000D+00    0.497359D+00
   0   278    0.100000D+01    0.552464D+00    0.000000D+00    0.497359D+00
   0   279    0.100000D+01    0.552464D+00    0.000000D+00    0.497359D+00
   0   280    0.100000D+01    0.552464D+00    0.000000D+00    0.497359D+00
   0   281    0.100000D+01    0.552464D+00    0.000000D+00    0.497359D+00
   0   282    0.100000D+01    0.552464D+00    0.000000D+00    0.497359D+00
   0   283    0.100000D+01    0.552464D+00    0.000000D+00    0.497359D+00
   0   284    0.100000D+01    0.552464D+00    0.000000D+00    0.497359D+00
   0   285    0.100000D+01    0.552464D+00    0.000000D+00    0.497359D+00
   0   286    0.100000D+01    0.552463D+00    0.000000D+00    0.497359D+00
   0   287    0.100000D+01    0.552463D+00    0.000000D+00    0.497359D+00
   0   288    0.100000D+01    0.552463D+00    0.000000D+00    0.497359D+00
   0   289    0.100000D+01    0.552463D+00    0.000000D+00    0.497359D+00
   0   290    0.100000D+01    0.552463D+00    0.000000D+00    0.497359D+00
   0   291    0.100000D+01    0.552462D+00    0.000000D+00    0.497359D+00
   0   292    0.100000D+01    0.552462D+00    0.000000D+00    0.497359D+00
   0   293    0.100000D+01    0.552463D+00    0.000000D+00    0.497359D+00
   0   294    0.100000D+01    0.552463D+00    0.000000D+00    0.497359D+00
   0   295    0.100000D+01    0.552463D+00    0.000000D+00    0.497359D+00
   0   296    0.100000D+01    0.552464D+00    0.000000D+00    0.497359D+00
   0   297    0.100000D+01    0.552464D+00    0.000000D+00    0.497359D+00
   0   298    0.100000D+01    0.552465D+00    0.000000D+00    0.497359D+00
   0   299    0.100000D+01    0.552466D+00    0.000000D+00    0.497359D+00
   0   300    0.100000D+01    0.552467D+00    0.000000D+00    0.497359D+00
   0   301    0.100000D+01    0.552469D+00    0.000000D+00    0.497359D+00
   0   302    0.100000D+01    0.552470D+00    0.000000D+00    0.497358D+00
   0   303    0.100000D+01    0.552471D+00    0.000000D+00    0.497358D+00
   0   304    0.100000D+01    0.552473D+00    0.000000D+00    0.497358D+00
   0   305    0.100000D+01    0.552474D+00    0.000000D+00    0.497358D+00
   0   306    0.100000D+01    0.552476D+00    0.000000D+00    0.497358D+00
   0   307    0.100000D+01    0.552478D+00    0.000000D+00    0.497358D+00
   0   308    0.100000D+01    0.552479D+00    0.000000D+00    0.497358D+00
   0   309    0.100000D+01    0.552481D+00    0.000000D+00    0.497357D+00
   0   310    0.100000D+01    0.552482D+00    0.000000D+00    0.497357D+00
   0   311    0.100000D+01    0.552483D+00    0.000000D+00    0.497357D+00
   0   312    0.100000D+01    0.552485D+00    0.000000D+00    0.497357D+00
   0   313    0.100000D+01    0.552486D+00    0.000000D+00    0.497357D+00
   0   314    0.100000D+01    0.552486D+00    0.000000D+00    0.497357D+00
   0   315    0.100000D+01    0.552487D+00    0.000000D+00    0.497357D+00
   0   316    0.100000D+01    0.552488D+00    0.000000D+00    0.497357D+00
   0   317    0.100000D+01    0.552488D+00    0.000000D+00    0.497357D+00
   0   318    0.100000D+01    0.552488D+00    0.000000D+00    0.497357D+00
   0   319    0.100000D+01    0.552487D+00    0.000000D+00    0.497357D+00
   0   320    0.100000D+01    0.552487D+00    0.000000D+00    0.497357D+00
   0   321    0.100000D+01    0.552486D+00    0.000000D+00    0.497357D+00
   0   322    0.100000D+01    0.552485D+00    0.000000D+00    0.497357D+00
   0   323    0.100000D+01    0.552484D+00    0.000000D+00    0.497357D+00
   0   324    0.100000D+01    0.552482D+00    0.000000D+00    0.497357D+00
   0   325    0.100000D+01    0.552481D+00    0.000000D+00    0.497357D+00
   0   326    0.100000D+01    0.552479D+00    0.000000D+00    0.497358D+00
   0   327    0.100000D+01    0.552477D+00    0.000000D+00    0.497358D+00
   0   328    0.100000D+01    0.552476D+00    0.000000D+00    0.497358D+00
   0   329    0.100000D+01    0.552474D+00    0.000000D+00    0.497358D+00
   0   330    0.100000D+01    0.552472D+00    0.000000D+00    0.497358D+00
   0   331    0.100000D+01    0.552470D+00    0.000000D+00    0.497359D+00
   0   332    0.100000D+01    0.552467D+00    0.000000D+00    0.497359D+00
   0   333    0.100000D+01    0.552465D+00    0.000000D+00    0.497359D+00
   0   334    0.100000D+01    0.552461D+00    0.000000D+00    0.497359D+00
   0   335    0.100000D+01    0.552458D+00    0.000000D+00    0.497360D+00
   0   336    0.100000D+01    0.552453D+00    0.000000D+00    0.497360D+00
   0   337    0.100000D+01    0.552448D+00    0.000000D+00    0.497361D+00
   0   338    0.100000D+01    0.552442D+00    0.000000D+00    0.497361D+00
   0   339    0.100000D+01    0.552437D+00    0.000000D+00    0.497362D+00
   0   340    0.100000D+01    0.552430D+00    0.000000D+00    0.497363D+00
   0   341    0.100000D+01    0.552425D+00    0.000000D+00    0.497363D+00
   0   342    0.100000D+01    0.552419D+00    0.000000D+00    0.497364D+00
   0   343    0.100000D+01    0.552415D+00    0.000000D+00    0.497364D+00
   0   344    0.100000D+01    0.552413D+00    0.000000D+00    0.497364D+00
   0   345    0.100000D+01    0.552413D+00    0.000000D+00    0.497364D+00
   0   346    0.100000D+01    0.552416D+00    0.000000D+00    0.497364D+00
   0   347    0.100000D+01    0.552422D+00    0.000000D+00    0.497363D+00
   0   348    0.100000D+01    0.552431D+00    0.000000D+00    0.497363D+00
   0   349    0.100000D+01    0.552443D+00    0.000000D+00    0.497361D+00
   0   350    0.100000D+01    0.552457D+00    0.000000D+00    0.497360D+00
   0   351    0.100000D+01    0.552472D+00    0.000000D+00    0.497358D+00
   0   352    0.100000D+01    0.552487D+00    0.000000D+00    0.497357D+00
   0   353    0.100000D+01    0.552501D+00    0.000000D+00    0.497355D+00
   0   354    0.100000D+01    0.552511D+00    0.000000D+00    0.497354D+00
   0   355    0.100000D+01    0.552517D+00    0.000000D+00    0.497354D+00
   0   356    0.100000D+01    0.552517D+00    0.000000D+00    0.497354D+00
   0   357    0.100000D+01    0.552512D+00    0.000000D+00    0.497354D+00
   0   358    0.100000D+01    0.552501D+00    0.000000D+00    0.497355D+00
   0   359    0.100000D+01    0.552486D+00    0.000000D+00    0.497357D+00
   0   360    0.100000D+01    0.552469D+00    0.000000D+00    0.497359D+00
   0   361    0.100000D+01    0.552452D+00    0.613030D-11    0.497360D+00
   0   362    0.100000D+01    0.552435D+00    0.306515D-10    0.497362D+00
   0   363    0.100000D+01    0.552420D+00    0.190039D-09    0.497364D+00
   0   364    0.100000D+01    0.552407D+00    0.125058D-08    0.497365D+00
   0   365    0.100000D+01    0.552395D+00    0.692111D-08    0.497366D+00
   0   366    0.100000D+01    0.552381D+00    0.399818D-07    0.497368D+00
   0   367    0.100000D+01    0.552364D+00    0.268801D-06    0.497369D+00
   0   368    0.100000D+01    0.552343D+00    0.154884D-05    0.497372D+00
   0   369    0.100000D+01    0.552319D+00    0.944661D-05    0.497374D+00
   0   370    0.100000D+01    0.552298D+00    0.516578D-04    0.497376D+00
   0   371    0.100000D+01    0.552290D+00    0.307047D-03    0.497377D+00
   0   372    0.999999D+00    0.552300D+00    0.165367D-02    0.497376D+00
   0   373    0.999995D+00    0.552323D+00    0.101599D-01    0.497374D+00
   0   374    0.999970D+00    0.552342D+00    0.578356D-01    0.497372D+00
   0   375    0.999824D+00    0.552345D+00    0.346178D+00    0.497372D+00
   0   376    0.998944D+00    0.552238D+00    0.196638D+01    0.497383D+00
   0   377    0.993722D+00    0.551079D+00    0.131187D+02    0.497506D+00
   0   378    0.963037D+00    0.543480D+00    0.753431D+02    0.498307D+00
   0   379    0.802482D+00    0.507420D+00    0.387196D+03    0.501834D+00
   0   380    0.336374D+00    0.311954D+00    0.415687D+03    0.515252D+00
   0   381    0.871360D-01    0.126171D+00    0.128247D+03    0.523001D+00
   0   382    0.198622D-01    0.415145D-01    0.308616D+02    0.525662D+00
   0   383    0.439938D-02    0.123427D-01    0.830622D+01    0.526485D+00
   0   384    0.954313D-03    0.344793D-02    0.156926D+01    0.526727D+00
   0   385    0.204135D-03    0.928007D-03    0.318325D+00    0.526795D+00
   0   386    0.441615D-04    0.243125D-03    0.738839D-01    0.526813D+00
   0   387    0.955728D-05    0.624906D-04    0.174155D-01    0.526818D+00
   0   388    0.208427D-05    0.158076D-04    0.332300D-02    0.526819D+00
   0   389    0.450486D-06    0.395701D-05    0.834993D-03    0.526819D+00
   0   390    0.972306D-07    0.980501D-06    0.185797D-03    0.526819D+00
   0   391    0.214200D-07    0.241143D-06    0.318751D-04    0.526820D+00
   0   392    0.465356D-08    0.589769D-07    0.769952D-05    0.526820D+00
   0   393    0.100969D-08    0.143448D-07    0.194012D-05    0.526820D+00
   0   394    0.216752D-09    0.347219D-08    0.402177D-06    0.526820D+00
   0   395    0.468684D-10    0.836914D-09    0.916834D-07    0.526820D+00
   0   396    0.103688D-10    0.200966D-09    0.163450D-07    0.526820D+00
   0   397    0.225836D-11    0.481193D-10    0.364806D-08    0.526820D+00