variables =  "IG"  "JG"  "PHI"  "Temp."  "Latent_heat"  "mm"
ZONE  I=  401  J=  101
   0     0    0.100000D+01    0.940203D+00    0.000000D+00    0.154393D+00
   0     1    0.100000D+01    0.940203D+00    0.000000D+00    0.154393D+00
   0     2    0.100000D+01    0.940307D+00    0.000000D+00    0.154174D+00
   0     3    0.100000D+01    0.940514D+00    0.000000D+00    0.153736D+00
   0     4    0.100000D+01    0.940824D+00    0.000000D+00    0.153078D+00
   0     5    0.100000D+01    0.941238D+00    0.000000D+00    0.152200D+00
   0     6    0.100000D+01    0.941752D+00    0.000000D+00    0.151101D+00
   0     7    0.100000D+01    0.942368D+00    0.000000D+00    0.149780D+00
   0     8    0.100000D+01    0.943084D+00    0.000000D+00    0.148236D+00
   0     9    0.100000D+01    0.943899D+00    0.000000D+00    0.146467D+00
   0    10    0.100000D+01    0.944811D+00    0.000000D+00    0.144472D+00
   0    11    0.100000D+01    0.945818D+00    0.000000D+00    0.142251D+00
   0    12    0.100000D+01    0.946920D+00    0.000000D+00    0.139800D+00
   0    13    0.100000D+01    0.948113D+00    0.000000D+00    0.137119D+00
   0    14    0.100000D+01    0.949397D+00    0.000000D+00    0.134206D+00
   0    15    0.100000D+01    0.950769D+00    0.000000D+00    0.131059D+00
   0    16    0.100000D+01    0.952228D+00    0.000000D+00    0.127676D+00
   0    17    0.100000D+01    0.953770D+00    0.000000D+00    0.124058D+00
   0    18    0.100000D+01    0.955394D+00    0.000000D+00    0.120201D+00
   0    19    0.100000D+01    0.957097D+00    0.000000D+00    0.116104D+00
   0    20    0.100000D+01    0.958879D+00    0.000000D+00    0.111767D+00
   0    21    0.100000D+01    0.960735D+00    0.000000D+00    0.107188D+00
   0    22    0.100000D+01    0.962666D+00    0.000000D+00    0.102365D+00
   0    23    0.100000D+01    0.964669D+00    0.000000D+00    0.972955D-01
   0    24    0.100000D+01    0.966744D+00    0.000000D+00    0.919778D-01
   0    25    0.100000D+01    0.968889D+00    0.000000D+00    0.864078D-01
   0    26    0.100000D+01    0.971106D+00   -0.133227D-10    0.805806D-01
   0    27    0.100000D+01    0.973397D+00   -0.399680D-10    0.744891D-01
   0    28    0.100000D+01    0.975762D+00    0.293099D-09    0.681238D-01
   0    29    0.100000D+01    0.978207D+00    0.873968D-08    0.614719D-01
   0    30    0.100000D+01    0.980737D+00    0.517053D-07    0.545167D-01
   0    31    0.100000D+01    0.983360D+00   -0.988543D-08    0.472368D-01
   0    32    0.100000D+01    0.986086D+00    0.102728D-05    0.396056D-01
   0    33    0.100000D+01    0.988928D+00    0.574949D-05    0.315910D-01
   0    34    0.100000D+01    0.991900D+00   -0.496998D-05    0.231533D-01
   0    35    0.999999D+00    0.995024D+00    0.238053D-03    0.142430D-01
   0    36    0.999994D+00    0.998327D+00   -0.562378D-03    0.479227D-02
   0    37    0.999965D+00    0.100185D+01    0.597039D-02   -0.529460D-02
   0    38    0.999782D+00    0.100565D+01   -0.958596D-01   -0.161698D-01
   0    39    0.998725D+00    0.100983D+01    0.106215D+00   -0.280725D-01
   0    40    0.992474D+00    0.101449D+01   -0.126523D+01   -0.412049D-01
   0    41    0.955313D+00    0.101941D+01   -0.204483D+02   -0.548351D-01
   0    42    0.763810D+00    0.102612D+01   -0.793847D+02   -0.714826D-01
   0    43    0.222093D+00    0.102860D+01   -0.863235D+02   -0.790349D-01
   0    44    0.508999D-01    0.102685D+01    0.167692D+02   -0.755728D-01
   0    45    0.157852D-01    0.102176D+01   -0.936033D+01   -0.613215D-01
   0    46    0.825286D-02    0.101697D+01    0.428270D+01   -0.482845D-01
   0    47    0.751693D-02    0.101368D+01    0.147424D+01   -0.386698D-01
   0    48    0.832396D-02    0.101094D+01   -0.179304D+01   -0.315697D-01
   0    49    0.912503D-02    0.100853D+01    0.920037D+00   -0.245033D-01
   0    50    0.997897D-02    0.100817D+01   -0.853325D+00   -0.231208D-01
   0    51    0.104677D-01    0.100648D+01    0.895170D+00   -0.179771D-01
   0    52    0.105163D-01    0.100551D+01    0.230203D+00   -0.155476D-01
   0    53    0.108480D-01    0.100451D+01   -0.425489D+01   -0.124257D-01
   0    54    0.112095D-01    0.100404D+01    0.483248D-01   -0.114613D-01
   0    55    0.116790D-01    0.100305D+01    0.307157D+01   -0.858540D-02
   0    56    0.119558D-01    0.100300D+01    0.522263D+01   -0.909464D-02
   0    57    0.118059D-01    0.100346D+01    0.259112D+01   -0.950765D-02
   0    58    0.118783D-01    0.100303D+01   -0.584070D+01   -0.933072D-02
   0    59    0.120080D-01    0.100182D+01   -0.366794D+01   -0.523162D-02
   0    60    0.122391D-01    0.100084D+01   -0.482355D+01   -0.225376D-02
   0    61    0.127929D-01    0.100068D+01    0.148089D+01   -0.145884D-02
   0    62    0.130070D-01    0.100046D+01   -0.549232D+01   -0.101300D-02
   0    63    0.128790D-01    0.999239D+00    0.661655D+01    0.222118D-02
   0    64    0.129840D-01    0.100016D+01    0.180466D+01   -0.471742D-03
   0    65    0.132229D-01    0.100030D+01   -0.517722D+01   -0.129548D-02
   0    66    0.133316D-01    0.998841D+00   -0.744939D+01    0.338872D-02
   0    67    0.137043D-01    0.999681D+00   -0.739051D+01    0.156096D-02
   0    68    0.134749D-01    0.100051D+01    0.502146D+01   -0.178148D-02
   0    69    0.135108D-01    0.100067D+01   -0.277965D+01   -0.239260D-02
   0    70    0.136779D-01    0.999822D+00   -0.237959D+01    0.773517D-03
   0    71    0.141317D-01    0.998978D+00   -0.848295D+01    0.257844D-02
   0    72    0.142536D-01    0.998895D+00   -0.166178D+01    0.372567D-02
   0    73    0.144630D-01    0.997088D+00    0.765533D+01    0.766526D-02
   0    74    0.146176D-01    0.997771D+00   -0.678556D+01    0.658668D-02
   0    75    0.144628D-01    0.998820D+00    0.357883D+01    0.266520D-02
   0    76    0.141460D-01    0.999219D+00    0.895259D+01    0.214680D-02
   0    77    0.148658D-01    0.998676D+00    0.126301D+01    0.376246D-02
   0    78    0.146188D-01    0.997278D+00   -0.313088D+01    0.818693D-02
   0    79    0.148699D-01    0.996725D+00   -0.336091D+01    0.946774D-02
   0    80    0.151625D-01    0.996889D+00    0.675728D+01    0.839588D-02
   0    81    0.150463D-01    0.996855D+00   -0.536766D+01    0.849587D-02
   0    82    0.151992D-01    0.997168D+00   -0.443096D+01    0.779694D-02
   0    83    0.154568D-01    0.996169D+00   -0.164948D+01    0.106833D-01
   0    84    0.144227D-01    0.996952D+00   -0.231827D+01    0.876525D-02
   0    85    0.147685D-01    0.996149D+00    0.122424D+01    0.106783D-01
   0    86    0.151559D-01    0.996902D+00   -0.487073D+01    0.919911D-02
   0    87    0.148142D-01    0.996215D+00    0.567098D+01    0.114130D-01
   0    88    0.151736D-01    0.995612D+00   -0.899434D+01    0.120063D-01
   0    89    0.147648D-01    0.996320D+00    0.957919D+01    0.105473D-01
   0    90    0.150037D-01    0.994769D+00   -0.566331D+01    0.144680D-01
   0    91    0.153922D-01    0.996091D+00   -0.161894D+01    0.111462D-01
   0    92    0.155410D-01    0.996747D+00    0.415148D+01    0.951366D-02
   0    93    0.152837D-01    0.996915D+00    0.590631D+00    0.842418D-02
   0    94    0.154162D-01    0.997181D+00   -0.706219D+01    0.833719D-02
   0    95    0.153671D-01    0.996489D+00   -0.671523D+01    0.107419D-01
   0    96    0.152649D-01    0.996034D+00    0.437918D+01    0.115982D-01
   0    97    0.152163D-01    0.996878D+00    0.754216D+01    0.898170D-02
   0    98    0.154648D-01    0.997769D+00   -0.296530D+01    0.689134D-02
   0    99    0.156076D-01    0.996165D+00   -0.878455D+00    0.106300D-01
   0   100    0.159748D-01    0.995162D+00    0.704660D+01    0.133854D-01
   0   101    0.150459D-01    0.993906D+00   -0.300841D+01    0.175619D-01
   0   102    0.152490D-01    0.994334D+00    0.473336D+01    0.164987D-01
   0   103    0.153310D-01    0.996227D+00   -0.334945D+01    0.106159D-01
   0   104    0.156710D-01    0.995827D+00   -0.164927D+01    0.123383D-01
   0   105    0.158043D-01    0.995955D+00    0.233314D+01    0.108836D-01
   0   106    0.156262D-01    0.995548D+00   -0.260081D+01    0.131618D-01
   0   107    0.156002D-01    0.995385D+00   -0.231884D+01    0.125656D-01
   0   108    0.155212D-01    0.996091D+00   -0.785190D+00    0.110820D-01
   0   109    0.153163D-01    0.995765D+00    0.916233D+01    0.123509D-01
   0   110    0.156849D-01    0.996013D+00   -0.261118D+01    0.110520D-01
   0   111    0.156262D-01    0.996926D+00    0.804302D+00    0.933267D-02
   0   112    0.158888D-01    0.995802D+00    0.810070D+01    0.112828D-01
   0   113    0.159413D-01    0.994953D+00   -0.377022D+01    0.138498D-01
   0   114    0.153999D-01    0.995202D+00   -0.769552D+01    0.131383D-01
   0   115    0.153987D-01    0.997130D+00    0.259926D+01    0.779993D-02
   0   116    0.153487D-01    0.996845D+00    0.558083D+00    0.904192D-02
   0   117    0.157823D-01    0.997177D+00    0.363872D+01    0.809110D-02
   0   118    0.155488D-01    0.995785D+00   -0.398208D+00    0.118757D-01
   0   119    0.157339D-01    0.995485D+00   -0.567069D+00    0.124742D-01
   0   120    0.150816D-01    0.997681D+00   -0.230317D+01    0.684377D-02
   0   121    0.159949D-01    0.997208D+00    0.181575D+01    0.751474D-02
   0   122    0.156478D-01    0.997533D+00    0.572592D+01    0.711660D-02
   0   123    0.155466D-01    0.996845D+00    0.129918D+01    0.904665D-02
   0   124    0.155849D-01    0.996254D+00   -0.830318D+00    0.107890D-01
   0   125    0.153173D-01    0.996685D+00   -0.205670D+01    0.968115D-02
   0   126    0.152781D-01    0.996419D+00    0.464498D+01    0.100249D-01
   0   127    0.153218D-01    0.997394D+00   -0.764067D+01    0.816799D-02
   0   128    0.152342D-01    0.995668D+00    0.875529D+01    0.127634D-01
   0   129    0.154100D-01    0.994623D+00    0.311422D+00    0.157506D-01
   0   130    0.157476D-01    0.996560D+00   -0.849436D+01    0.103328D-01
   0   131    0.156232D-01    0.997061D+00   -0.512715D+01    0.905183D-02
   0   132    0.156944D-01    0.996163D+00   -0.412952D+01    0.104773D-01
   0   133    0.154288D-01    0.996115D+00   -0.319049D+01    0.105870D-01
   0   134    0.155925D-01    0.994748D+00   -0.547573D+01    0.142207D-01
   0   135    0.154793D-01    0.995464D+00   -0.459153D+01    0.125924D-01
   0   136    0.153797D-01    0.995714D+00   -0.340835D+01    0.118635D-01
   0   137    0.155402D-01    0.995996D+00    0.647598D+01    0.109624D-01
   0   138    0.152681D-01    0.995881D+00   -0.237029D+01    0.122038D-01
   0   139    0.153698D-01    0.996131D+00    0.400857D+01    0.109820D-01
   0   140    0.155672D-01    0.995038D+00   -0.962013D+01    0.140761D-01
   0   141    0.153281D-01    0.995532D+00   -0.217432D+01    0.128403D-01
   0   142    0.156469D-01    0.996895D+00   -0.734904D+01    0.901703D-02
   0   143    0.152893D-01    0.997576D+00    0.696532D+01    0.622835D-02
   0   144    0.155141D-01    0.996679D+00   -0.246439D+01    0.889505D-02
   0   145    0.160269D-01    0.996764D+00   -0.546033D+00    0.992329D-02
   0   146    0.158572D-01    0.998729D+00    0.858888D+01    0.396044D-02
   0   147    0.154812D-01    0.995762D+00    0.401654D+01    0.117804D-01
   0   148    0.156237D-01    0.996202D+00   -0.183209D+00    0.112976D-01
   0   149    0.156535D-01    0.996328D+00    0.568454D+01    0.106066D-01
   0   150    0.157738D-01    0.996131D+00    0.861911D+00    0.108112D-01
   0   151    0.154624D-01    0.996184D+00   -0.138437D+01    0.111692D-01
   0   152    0.153162D-01    0.996061D+00    0.328617D+01    0.114927D-01
   0   153    0.151610D-01    0.997019D+00   -0.434072D+01    0.925955D-02
   0   154    0.152868D-01    0.997698D+00    0.455011D+01    0.720862D-02
   0   155    0.157591D-01    0.997398D+00    0.577547D+00    0.649365D-02
   0   156    0.153694D-01    0.996424D+00   -0.567008D+01    0.994987D-02
   0   157    0.153826D-01    0.996090D+00    0.336959D+01    0.118275D-01
   0   158    0.151211D-01    0.995733D+00    0.206959D+01    0.117193D-01
   0   159    0.154079D-01    0.996224D+00    0.369648D+01    0.104565D-01
   0   160    0.150823D-01    0.996901D+00   -0.413802D+01    0.936458D-02
   0   161    0.150740D-01    0.996678D+00   -0.359357D+01    0.954646D-02
   0   162    0.151843D-01    0.997445D+00    0.869592D+01    0.735250D-02
   0   163    0.151901D-01    0.998262D+00    0.724527D+00    0.517136D-02
   0   164    0.153448D-01    0.997346D+00    0.185571D+01    0.825810D-02
   0   165    0.153754D-01    0.997772D+00    0.531514D+01    0.690346D-02
   0   166    0.151142D-01    0.996745D+00    0.524299D+01    0.973316D-02
   0   167    0.152437D-01    0.996683D+00    0.531520D+01    0.957857D-02
   0   168    0.150941D-01    0.996031D+00   -0.822562D+01    0.108716D-01
   0   169    0.153956D-01    0.996623D+00   -0.692927D+01    0.102302D-01
   0   170    0.151155D-01    0.996587D+00   -0.917736D+00    0.100954D-01
   0   171    0.149953D-01    0.996248D+00   -0.823579D+01    0.105989D-01
   0   172    0.152960D-01    0.996498D+00    0.530589D+01    0.986834D-02
   0   173    0.150415D-01    0.997536D+00    0.703859D+01    0.684281D-02
   0   174    0.146111D-01    0.997018D+00   -0.384762D+01    0.805455D-02
   0   175    0.147307D-01    0.998023D+00    0.787191D+01    0.514372D-02
   0   176    0.149014D-01    0.997041D+00   -0.548798D+01    0.815691D-02
   0   177    0.147600D-01    0.997685D+00   -0.479708D+01    0.639693D-02
   0   178    0.148560D-01    0.997103D+00   -0.258060D+01    0.834366D-02
   0   179    0.148318D-01    0.996483D+00   -0.862777D+01    0.989960D-02
   0   180    0.150104D-01    0.996041D+00   -0.995462D+01    0.112100D-01
   0   181    0.146400D-01    0.997621D+00    0.116235D+01    0.722400D-02
   0   182    0.146167D-01    0.996638D+00    0.666555D+01    0.889795D-02
   0   183    0.145924D-01    0.996677D+00   -0.657702D+01    0.938118D-02
   0   184    0.149131D-01    0.996955D+00   -0.105528D+01    0.885219D-02
   0   185    0.149046D-01    0.997495D+00   -0.539156D+01    0.686347D-02
   0   186    0.146335D-01    0.996592D+00   -0.483660D+01    0.102088D-01
   0   187    0.149445D-01    0.996867D+00   -0.603344D+01    0.869276D-02
   0   188    0.148520D-01    0.997711D+00    0.127517D+00    0.686402D-02
   0   189    0.147244D-01    0.997198D+00   -0.682190D+01    0.738735D-02
   0   190    0.150156D-01    0.996416D+00    0.712436D+01    0.100184D-01
   0   191    0.150822D-01    0.996315D+00    0.394733D+00    0.106317D-01
   0   192    0.151529D-01    0.995591D+00    0.161165D+01    0.130223D-01
   0   193    0.149125D-01    0.996447D+00   -0.528670D+01    0.103021D-01
   0   194    0.148722D-01    0.996674D+00   -0.227866D+01    0.946383D-02
   0   195    0.149042D-01    0.997271D+00   -0.452377D+00    0.839787D-02
   0   196    0.150580D-01    0.997685D+00   -0.352994D+01    0.703936D-02
   0   197    0.148206D-01    0.997376D+00   -0.241499D+01    0.705083D-02
   0   198    0.152269D-01    0.996702D+00   -0.672534D+01    0.941515D-02
   0   199    0.147125D-01    0.996685D+00   -0.129029D+01    0.872241D-02
   0   200    0.145830D-01    0.996243D+00   -0.669339D+01    0.101909D-01
   0   201    0.146984D-01    0.997870D+00    0.312161D+01    0.659843D-02
   0   202    0.144815D-01    0.998202D+00   -0.261423D+01    0.504720D-02
   0   203    0.146972D-01    0.997976D+00   -0.853773D+01    0.532563D-02
   0   204    0.145351D-01    0.998448D+00    0.464280D+01    0.417534D-02
   0   205    0.144433D-01    0.997361D+00   -0.584950D+01    0.729180D-02
   0   206    0.151012D-01    0.996684D+00   -0.507991D+01    0.100444D-01
   0   207    0.151995D-01    0.996203D+00   -0.198757D+01    0.111831D-01
   0   208    0.148516D-01    0.995912D+00    0.825092D+01    0.117481D-01
   0   209    0.146824D-01    0.996685D+00    0.693735D+01    0.995669D-02
   0   210    0.144440D-01    0.996549D+00    0.215089D+01    0.911584D-02
   0   211    0.147851D-01    0.996987D+00   -0.544018D+01    0.849422D-02
   0   212    0.147039D-01    0.997511D+00   -0.649732D+01    0.774164D-02
   0   213    0.147943D-01    0.997168D+00   -0.368008D+01    0.857275D-02
   0   214    0.143551D-01    0.997102D+00    0.766055D+01    0.901580D-02
   0   215    0.145331D-01    0.997067D+00   -0.349441D+00    0.870931D-02
   0   216    0.143375D-01    0.997804D+00    0.784957D+00    0.691971D-02
   0   217    0.146488D-01    0.997391D+00   -0.648616D+01    0.809632D-02
   0   218    0.144195D-01    0.997063D+00   -0.650711D+01    0.792580D-02
   0   219    0.145732D-01    0.997158D+00    0.421528D+01    0.853214D-02
   0   220    0.145703D-01    0.998399D+00    0.784271D+01    0.468493D-02
   0   221    0.146541D-01    0.999298D+00    0.539139D+01    0.246215D-02
   0   222    0.145936D-01    0.998935D+00   -0.387812D+01    0.361284D-02
   0   223    0.144909D-01    0.997825D+00    0.409247D+01    0.640492D-02
   0   224    0.141230D-01    0.998813D+00    0.647396D+01    0.288278D-02
   0   225    0.147504D-01    0.997204D+00   -0.305659D+01    0.750380D-02
   0   226    0.143280D-01    0.997365D+00    0.749261D+00    0.756856D-02
   0   227    0.141640D-01    0.999030D+00    0.644513D+01    0.213276D-02
   0   228    0.137307D-01    0.997659D+00    0.832686D+01    0.635944D-02
   0   229    0.141227D-01    0.996573D+00   -0.199243D+01    0.939811D-02
   0   230    0.143693D-01    0.997979D+00   -0.337925D+01    0.555057D-02
   0   231    0.143821D-01    0.998570D+00   -0.704071D+01    0.467038D-02
   0   232    0.147656D-01    0.999074D+00    0.273668D-01    0.235030D-02
   0   233    0.143678D-01    0.999645D+00    0.296071D+01    0.874620D-03
   0   234    0.139086D-01    0.100021D+01   -0.300570D+01   -0.111219D-02
   0   235    0.141461D-01    0.100037D+01   -0.427787D+01   -0.545729D-03
   0   236    0.143958D-01    0.999360D+00   -0.194431D+01    0.138104D-02
   0   237    0.138324D-01    0.998890D+00    0.947333D+01    0.388113D-02
   0   238    0.143855D-01    0.997453D+00   -0.589227D+01    0.769781D-02
   0   239    0.139904D-01    0.997305D+00    0.125019D+01    0.805206D-02
   0   240    0.140094D-01    0.997951D+00   -0.630288D+01    0.652678D-02
   0   241    0.142016D-01    0.998550D+00   -0.293171D+01    0.418569D-02
   0   242    0.138866D-01    0.998595D+00    0.349323D+01    0.372486D-02
   0   243    0.143385D-01    0.998527D+00   -0.417421D+01    0.480553D-02
   0   244    0.142713D-01    0.999302D+00    0.503263D+01    0.176167D-02
   0   245    0.144820D-01    0.100010D+01   -0.370109D+01    0.663147D-04
   0   246    0.141001D-01    0.998994D+00    0.423363D+01    0.223129D-02
   0   247    0.140162D-01    0.998476D+00   -0.307830D+01    0.483003D-02
   0   248    0.142676D-01    0.998514D+00    0.328063D+01    0.355347D-02
   0   249    0.144069D-01    0.998567D+00   -0.385992D+01    0.432000D-02
   0   250    0.141555D-01    0.998861D+00    0.372316D+01    0.359994D-02
   0   251    0.138240D-01    0.998595D+00    0.623442D+01    0.354939D-02
   0   252    0.141121D-01    0.998719D+00    0.712666D+01    0.373534D-02
   0   253    0.139989D-01    0.999196D+00    0.832131D+01    0.271980D-02
   0   254    0.140903D-01    0.998956D+00    0.670826D+01    0.356653D-02
   0   255    0.139967D-01    0.998955D+00    0.588368D+01    0.294331D-02
   0   256    0.140607D-01    0.999273D+00    0.520423D+01    0.205138D-02
   0   257    0.143305D-01    0.999158D+00    0.147702D+01    0.288568D-02
   0   258    0.142288D-01    0.998867D+00   -0.198411D+01    0.378629D-02
   0   259    0.139899D-01    0.998720D+00   -0.577636D+01    0.329530D-02
   0   260    0.137136D-01    0.999125D+00   -0.584370D+01    0.177866D-02
   0   261    0.139582D-01    0.998297D+00    0.600268D-01    0.467320D-02
   0   262    0.138178D-01    0.999316D+00   -0.802698D+00    0.251738D-02
   0   263    0.132594D-01    0.998769D+00   -0.477283D+01    0.370084D-02
   0   264    0.137076D-01    0.998772D+00    0.280509D+01    0.363366D-02
   0   265    0.139913D-01    0.998521D+00   -0.580421D+01    0.440395D-02
   0   266    0.138023D-01    0.997968D+00   -0.780792D+01    0.600721D-02
   0   267    0.136710D-01    0.998511D+00    0.730512D+01    0.478204D-02
   0   268    0.138428D-01    0.998778D+00   -0.240446D+00    0.311323D-02
   0   269    0.137098D-01    0.999010D+00    0.276100D+01    0.275551D-02
   0   270    0.137459D-01    0.998248D+00    0.797613D+01    0.533342D-02
   0   271    0.136432D-01    0.998033D+00   -0.367572D+01    0.576712D-02
   0   272    0.133166D-01    0.999406D+00    0.870617D+01    0.162214D-02
   0   273    0.138760D-01    0.998320D+00    0.461479D+01    0.473645D-02
   0   274    0.137173D-01    0.998551D+00    0.409681D+01    0.353810D-02
   0   275    0.133401D-01    0.998009D+00    0.231850D+01    0.599282D-02
   0   276    0.136484D-01    0.998443D+00   -0.486860D+01    0.459846D-02
   0   277    0.134606D-01    0.999404D+00   -0.719146D+01    0.116002D-02
   0   278    0.134980D-01    0.999266D+00    0.876915D+01    0.236812D-02
   0   279    0.132312D-01    0.998273D+00   -0.535198D+01    0.554017D-02
   0   280    0.130970D-01    0.999413D+00    0.643188D+01    0.220984D-02
   0   281    0.132481D-01    0.998893D+00   -0.449884D+01    0.315440D-02
   0   282    0.132150D-01    0.999795D+00    0.768403D+01    0.146581D-03
   0   283    0.131391D-01    0.100028D+01   -0.705273D+01   -0.806070D-03
   0   284    0.130679D-01    0.100039D+01    0.336665D+01   -0.687808D-03
   0   285    0.132870D-01    0.100047D+01    0.488124D+01   -0.165976D-02
   0   286    0.131938D-01    0.100024D+01   -0.574471D+01   -0.159411D-03
   0   287    0.133388D-01    0.100022D+01   -0.702144D+01   -0.584717D-03
   0   288    0.131567D-01    0.100097D+01   -0.354919D+01   -0.280910D-02
   0   289    0.130924D-01    0.100001D+01   -0.296996D+01   -0.242053D-03
   0   290    0.136550D-01    0.999738D+00    0.492792D+01    0.760290D-03
   0   291    0.134304D-01    0.999479D+00   -0.413813D+01    0.130984D-02
   0   292    0.133925D-01    0.999632D+00    0.532942D+01    0.700199D-03
   0   293    0.132088D-01    0.100006D+01    0.274255D+01    0.771391D-04
   0   294    0.136295D-01    0.999743D+00   -0.752937D+01    0.632226D-03
   0   295    0.133018D-01    0.100018D+01    0.387832D+01   -0.548310D-03
   0   296    0.134339D-01    0.999460D+00    0.820410D+01    0.203302D-02
   0   297    0.130143D-01    0.100005D+01    0.665494D+01    0.474240D-03
   0   298    0.132926D-01    0.999781D+00    0.179244D+01    0.840793D-03
   0   299    0.137184D-01    0.999679D+00    0.347112D+00    0.260733D-03
   0   300    0.132572D-01    0.999840D+00    0.695579D+01    0.250986D-03
   0   301    0.134601D-01    0.100059D+01   -0.672217D+01   -0.175704D-02
   0   302    0.137803D-01    0.100013D+01    0.711740D+01   -0.116242D-02
   0   303    0.136410D-01    0.100061D+01    0.670668D+00   -0.163064D-02
   0   304    0.133994D-01    0.999966D+00   -0.651220D+01   -0.159675D-03
   0   305    0.135704D-01    0.100012D+01   -0.393356D+01    0.136219D-03
   0   306    0.134436D-01    0.100012D+01   -0.657233D+01   -0.328143D-03
   0   307    0.135998D-01    0.999515D+00    0.124294D+01    0.176112D-02
   0   308    0.137994D-01    0.999540D+00   -0.475290D+00    0.103355D-02
   0   309    0.137220D-01    0.999607D+00    0.820792D+01    0.129735D-02
   0   310    0.136602D-01    0.100003D+01   -0.466313D+01   -0.113637D-03
   0   311    0.133950D-01    0.999741D+00    0.152867D+01    0.139670D-03
   0   312    0.140062D-01    0.999246D+00   -0.321027D+01    0.177036D-02
   0   313    0.141024D-01    0.999165D+00   -0.696951D+01    0.166826D-02
   0   314    0.138210D-01    0.999030D+00   -0.501100D+01    0.309723D-02
   0   315    0.139196D-01    0.998822D+00   -0.686754D+00    0.283384D-02
   0   316    0.138828D-01    0.999157D+00    0.818911D+01    0.180390D-02
   0   317    0.144269D-01    0.998709D+00   -0.915202D+01    0.421746D-02
   0   318    0.142104D-01    0.998660D+00    0.531167D+01    0.312285D-02
   0   319    0.144212D-01    0.999255D+00   -0.318247D+01    0.258447D-02
   0   320    0.138883D-01    0.998540D+00   -0.529570D+01    0.383881D-02
   0   321    0.143844D-01    0.999624D+00   -0.395121D+01    0.544098D-03
   0   322    0.140427D-01    0.998484D+00   -0.732038D+01    0.435765D-02
   0   323    0.138747D-01    0.998566D+00    0.762797D+01    0.396543D-02
   0   324    0.145234D-01    0.998093D+00    0.890832D+00    0.621210D-02
   0   325    0.143911D-01    0.998449D+00    0.755477D+01    0.435816D-02
   0   326    0.144831D-01    0.997721D+00    0.626161D+01    0.636605D-02
   0   327    0.143358D-01    0.998644D+00    0.320345D+01    0.425723D-02
   0   328    0.142172D-01    0.997614D+00   -0.785106D+01    0.685727D-02
   0   329    0.142996D-01    0.996302D+00   -0.239094D+01    0.100999D-01
   0   330    0.140607D-01    0.996673D+00   -0.189327D+01    0.987624D-02
   0   331    0.141470D-01    0.997818D+00   -0.197960D+01    0.683724D-02
   0   332    0.142439D-01    0.998436D+00   -0.373444D+01    0.504193D-02
   0   333    0.143218D-01    0.998804D+00    0.493447D+01    0.325118D-02
   0   334    0.143326D-01    0.999867D+00    0.510222D+01    0.419716D-03
   0   335    0.141580D-01    0.100011D+01    0.283019D+01   -0.398774D-03
   0   336    0.143685D-01    0.998443D+00   -0.258316D+00    0.404828D-02
   0   337    0.144490D-01    0.997851D+00    0.710730D+01    0.551833D-02
   0   338    0.144940D-01    0.996438D+00   -0.134614D+01    0.104609D-01
   0   339    0.144685D-01    0.998044D+00   -0.717043D+00    0.492369D-02
   0   340    0.146217D-01    0.998583D+00   -0.818588D+00    0.443887D-02
   0   341    0.148323D-01    0.997473D+00   -0.497714D+01    0.785801D-02
   0   342    0.151127D-01    0.995644D+00   -0.619324D+01    0.131374D-01
   0   343    0.152740D-01    0.996094D+00    0.260122D+01    0.112623D-01
   0   344    0.156934D-01    0.994915D+00   -0.178593D+01    0.146067D-01
   0   345    0.161054D-01    0.995124D+00    0.401285D+01    0.147405D-01
   0   346    0.161692D-01    0.995382D+00    0.426195D+01    0.136438D-01
   0   347    0.167634D-01    0.995643D+00    0.866242D+01    0.129657D-01
   0   348    0.167197D-01    0.994004D+00   -0.928511D+00    0.164606D-01
   0   349    0.168398D-01    0.992281D+00   -0.222228D+01    0.220365D-01
   0   350    0.159519D-01    0.991943D+00    0.594717D+01    0.232252D-01
   0   351    0.167409D-01    0.990369D+00    0.152413D+01    0.276797D-01
   0   352    0.174436D-01    0.987045D+00   -0.757043D+01    0.368546D-01
   0   353    0.186084D-01    0.979240D+00    0.305249D+01    0.589283D-01
   0   354    0.209728D-01    0.968233D+00   -0.120434D+02    0.882394D-01
   0   355    0.245941D-01    0.950939D+00    0.748707D+01    0.131015D+00
   0   356    0.277027D-01    0.922710D+00   -0.139700D+02    0.189037D+00
   0   357    0.266081D-01    0.881555D+00   -0.295641D+01    0.249266D+00
   0   358    0.215661D-01    0.817997D+00    0.147355D+02    0.306192D+00
   0   359    0.133102D-01    0.731807D+00    0.397171D+01    0.347908D+00
   0   360    0.701266D-02    0.627671D+00    0.606144D+01    0.374929D+00
   0   361    0.302474D-02    0.518660D+00    0.157290D+01    0.391381D+00
   0   362    0.123749D-02    0.414304D+00    0.141158D+01    0.401596D+00
   0   363    0.474509D-03    0.321505D+00    0.516923D+00    0.408105D+00
   0   364    0.167737D-03    0.243281D+00    0.747434D-01    0.412377D+00
   0   365    0.559369D-04    0.180087D+00    0.192870D-01    0.415243D+00
   0   366    0.182903D-04    0.130775D+00    0.120685D-01    0.417194D+00
   0   367    0.596261D-05    0.933851D-01    0.533229D-02    0.418534D+00
   0   368    0.185655D-05    0.657117D-01    0.155264D-02    0.419457D+00
   0   369    0.551792D-06    0.456467D-01    0.260345D-03    0.420094D+00
   0   370    0.169916D-06    0.313525D-01    0.966754D-04    0.420531D+00
   0   371    0.513294D-07    0.213230D-01    0.598848D-04    0.420830D+00
   0   372    0.151363D-07    0.143772D-01    0.102543D-04    0.421034D+00
   0   373    0.443740D-08    0.962109D-02    0.129752D-05    0.421172D+00
   0   374    0.130244D-08    0.639611D-02    0.713777D-06    0.421265D+00
   0   375    0.381518D-09    0.422777D-02    0.352474D-06    0.421327D+00
   0   376    0.115785D-09    0.278053D-02    0.135068D-06    0.421368D+00
   0   377    0.350762D-10    0.182070D-02    0.169660D-07    0.421395D+00
   0   378    0.109090D-10    0.118763D-02    0.220036D-08    0.421413D+00
   0   379    0.318555D-11    0.772087D-03    0.103086D-08    0.421425D+00
   0   380    0.963712D-12    0.500462D-03    0.125842D-08    0.421433D+00
   0   381    0.284620D-12    0.323557D-03    0.937690D-10    0.421438D+00
   0   382    0.825907D-13    0.208709D-03    0.790748D-10    0.421441D+00
   0   383    0.238040D-13    0.134355D-03    0.983021D-11    0.421443D+00
   0   384    0.677267D-14    0.863362D-04    0.201864D-11    0.421445D+00
   0   385    0.184894D-14    0.553915D-04    0.245476D-11    0.421445D+00
   0   386    0.518882D-15    0.354879D-04    0.433140D-12    0.421446D+00
   0   387    0.145673D-15    0.227074D-04    0.189213D-12    0.421446D+00
   0   388    0.405445D-16    0.145131D-04    0.396349D-13    0.421447D+00
   0   389    0.109859D-16    0.926631D-05    0.413762D-14    0.421447D+00
   0   390    0.296411D-17    0.591069D-05    0.208463D-14    0.421447D+00
   0   391    0.777625D-18    0.376676D-05    0.100532D-14    0.421447D+00
   0   392    0.207415D-18    0.239810D-05    0.557181D-16    0.421447D+00
   0   393    0.523835D-19    0.152478D-05    0.563738D-16    0.421447D+00
   0   394    0.135420D-19    0.967434D-06    0.146835D-16    0.421447D+00
   0   395    0.350423D-20    0.611140D-06    0.477840D-17    0.421447D+00
   0   396    0.898284D-21    0.382181D-06    0.433457D-18    0.421447D+00
   0   397    0.231316D-21    0.233031D-06    0.231263D-18    0.421447D+00