variables =  "IG"  "JG"  "PHI"  "Temp."  "Latent_heat"  "mm"
ZONE  I=  401  J=  101
   0     0    0.100000D+01    0.870491D+00    0.000000D+00    0.261636D+00
   0     1    0.100000D+01    0.870491D+00    0.000000D+00    0.261636D+00
   0     2    0.100000D+01    0.870831D+00    0.000000D+00    0.261272D+00
   0     3    0.100000D+01    0.871511D+00    0.000000D+00    0.260540D+00
   0     4    0.100000D+01    0.872526D+00    0.000000D+00    0.259437D+00
   0     5    0.100000D+01    0.873874D+00    0.000000D+00    0.257957D+00
   0     6    0.100000D+01    0.875549D+00    0.000000D+00    0.256090D+00
   0     7    0.100000D+01    0.877544D+00    0.000000D+00    0.253825D+00
   0     8    0.100000D+01    0.879853D+00    0.000000D+00    0.251148D+00
   0     9    0.100000D+01    0.882466D+00    0.000000D+00    0.248044D+00
   0    10    0.100000D+01    0.885375D+00    0.000000D+00    0.244495D+00
   0    11    0.100000D+01    0.888567D+00    0.000000D+00    0.240479D+00
   0    12    0.100000D+01    0.892033D+00    0.000000D+00    0.235973D+00
   0    13    0.100000D+01    0.895760D+00    0.000000D+00    0.230949D+00
   0    14    0.100000D+01    0.899736D+00    0.000000D+00    0.225380D+00
   0    15    0.100000D+01    0.903949D+00    0.000000D+00    0.219233D+00
   0    16    0.100000D+01    0.908386D+00    0.000000D+00    0.212473D+00
   0    17    0.100000D+01    0.913035D+00    0.000000D+00    0.205061D+00
   0    18    0.100000D+01    0.917885D+00   -0.266454D-10    0.196958D+00
   0    19    0.100000D+01    0.922924D+00    0.173195D-09    0.188121D+00
   0    20    0.100000D+01    0.928142D+00    0.173195D-09    0.178502D+00
   0    21    0.100000D+01    0.933532D+00    0.106581D-09    0.168057D+00
   0    22    0.100000D+01    0.939086D+00    0.517586D-07    0.156736D+00
   0    23    0.100000D+01    0.944801D+00   -0.126832D-07    0.144492D+00
   0    24    0.100000D+01    0.950674D+00    0.461015D-05    0.131277D+00
   0    25    0.100000D+01    0.956708D+00    0.443479D-05    0.117043D+00
   0    26    0.100000D+01    0.962913D+00    0.153607D-04    0.101739D+00
   0    27    0.999997D+00    0.969308D+00    0.276180D-03    0.853082D-01
   0    28    0.999983D+00    0.975925D+00   -0.895571D-04    0.676756D-01
   0    29    0.999884D+00    0.982819D+00    0.613807D-01    0.487376D-01
   0    30    0.999239D+00    0.990076D+00    0.242445D+00    0.283242D-01
   0    31    0.995163D+00    0.997909D+00    0.797556D-01    0.596464D-02
   0    32    0.970027D+00    0.100640D+01   -0.742747D+01   -0.184130D-01
   0    33    0.823972D+00    0.101520D+01    0.624725D+02   -0.438796D-01
   0    34    0.301702D+00    0.102301D+01   -0.214757D+01   -0.675495D-01
   0    35    0.712207D-01    0.102531D+01    0.657144D+01   -0.705748D-01
   0    36    0.211287D-01    0.102005D+01    0.264296D+01   -0.559714D-01
   0    37    0.100829D-01    0.101575D+01   -0.383544D+01   -0.445671D-01
   0    38    0.826097D-02    0.101265D+01   -0.157415D+01   -0.356131D-01
   0    39    0.866425D-02    0.101036D+01    0.360700D+01   -0.293465D-01
   0    40    0.959930D-02    0.100777D+01   -0.435546D+01   -0.224056D-01
   0    41    0.101821D-01    0.100671D+01    0.310317D+01   -0.187232D-01
   0    42    0.105430D-01    0.100557D+01   -0.349672D+01   -0.163253D-01
   0    43    0.107409D-01    0.100605D+01   -0.188887D+00   -0.176851D-01
   0    44    0.108917D-01    0.100604D+01   -0.290870D+01   -0.172715D-01
   0    45    0.111709D-01    0.100567D+01   -0.223050D+01   -0.164871D-01
   0    46    0.112794D-01    0.100463D+01   -0.252253D+01   -0.129186D-01
   0    47    0.112388D-01    0.100296D+01    0.697202D-01   -0.813388D-02
   0    48    0.116617D-01    0.100276D+01    0.453023D+00   -0.790223D-02
   0    49    0.121873D-01    0.100267D+01   -0.178231D+01   -0.822912D-02
   0    50    0.119077D-01    0.100302D+01    0.265723D+01   -0.834843D-02
   0    51    0.121263D-01    0.100230D+01    0.326610D+01   -0.715482D-02
   0    52    0.122928D-01    0.100143D+01   -0.310145D+01   -0.399719D-02
   0    53    0.122663D-01    0.100151D+01   -0.742601D+01   -0.440133D-02
   0    54    0.124976D-01    0.100159D+01   -0.608085D+01   -0.392664D-02
   0    55    0.128087D-01    0.100074D+01   -0.181578D+01   -0.187816D-02
   0    56    0.131443D-01    0.999602D+00    0.538430D+01    0.162798D-02
   0    57    0.132048D-01    0.998711D+00   -0.718134D+01    0.321645D-02
   0    58    0.132831D-01    0.998916D+00   -0.475233D+01    0.245076D-02
   0    59    0.135764D-01    0.999405D+00    0.154782D+01    0.209071D-02
   0    60    0.137204D-01    0.999713D+00   -0.700422D+01    0.139400D-02
   0    61    0.137677D-01    0.999127D+00   -0.486241D+01    0.310468D-02
   0    62    0.136887D-01    0.998933D+00    0.282190D+01    0.335273D-02
   0    63    0.140882D-01    0.999258D+00    0.599712D+01    0.276584D-02
   0    64    0.138084D-01    0.999081D+00    0.372375D+01    0.243323D-02
   0    65    0.142266D-01    0.999856D+00    0.142042D+01    0.101319D-02
   0    66    0.137276D-01    0.999406D+00   -0.417273D+01    0.251100D-02
   0    67    0.140188D-01    0.999639D+00   -0.349962D+01    0.129996D-02
   0    68    0.145731D-01    0.999116D+00    0.103264D+01    0.286091D-02
   0    69    0.144803D-01    0.998653D+00    0.769186D+01    0.452585D-02
   0    70    0.142617D-01    0.996749D+00    0.285020D+01    0.896028D-02
   0    71    0.138064D-01    0.998345D+00   -0.563459D+01    0.506354D-02
   0    72    0.145485D-01    0.997237D+00   -0.391944D+01    0.804046D-02
   0    73    0.146819D-01    0.998254D+00   -0.439365D+00    0.551167D-02
   0    74    0.143061D-01    0.997379D+00   -0.705792D+01    0.678598D-02
   0    75    0.145857D-01    0.996499D+00   -0.769967D+01    0.968026D-02
   0    76    0.145484D-01    0.998151D+00   -0.779625D+01    0.458387D-02
   0    77    0.148179D-01    0.998174D+00   -0.932335D+01    0.469935D-02
   0    78    0.145423D-01    0.998585D+00    0.253291D+01    0.430031D-02
   0    79    0.143199D-01    0.997809D+00    0.706873D+01    0.658076D-02
   0    80    0.146085D-01    0.997699D+00    0.176771D+01    0.599449D-02
   0    81    0.143994D-01    0.998405D+00   -0.281914D+01    0.492204D-02
   0    82    0.142918D-01    0.998249D+00   -0.872026D+01    0.454213D-02
   0    83    0.144891D-01    0.997454D+00    0.498181D+01    0.746795D-02
   0    84    0.145625D-01    0.997905D+00    0.140059D+01    0.612881D-02
   0    85    0.144788D-01    0.998388D+00    0.100727D+01    0.457732D-02
   0    86    0.142452D-01    0.998271D+00    0.533360D+01    0.538704D-02
   0    87    0.147924D-01    0.997437D+00   -0.908345D+01    0.672533D-02
   0    88    0.147776D-01    0.998303D+00    0.399565D+01    0.445715D-02
   0    89    0.150588D-01    0.997989D+00    0.656156D+01    0.583586D-02
   0    90    0.145600D-01    0.997644D+00    0.621088D+01    0.716090D-02
   0    91    0.143296D-01    0.998048D+00   -0.148421D+01    0.524520D-02
   0    92    0.141980D-01    0.998093D+00   -0.153569D+01    0.583853D-02
   0    93    0.142201D-01    0.997941D+00    0.489341D+01    0.650995D-02
   0    94    0.143648D-01    0.997820D+00   -0.839752D+01    0.659552D-02
   0    95    0.142516D-01    0.999045D+00   -0.161022D+01    0.183530D-02
   0    96    0.145086D-01    0.999095D+00    0.111779D+01    0.313714D-02
   0    97    0.146048D-01    0.998288D+00    0.550287D+01    0.548399D-02
   0    98    0.145341D-01    0.998376D+00    0.818668D+01    0.516341D-02
   0    99    0.145629D-01    0.997749D+00   -0.810268D+01    0.643808D-02
   0   100    0.144447D-01    0.997311D+00    0.237370D+01    0.794086D-02
   0   101    0.149160D-01    0.996170D+00    0.618479D+01    0.112768D-01
   0   102    0.145440D-01    0.996727D+00   -0.293988D+01    0.901661D-02
   0   103    0.145794D-01    0.996939D+00    0.560746D+01    0.898900D-02
   0   104    0.143493D-01    0.997893D+00    0.189775D+01    0.584570D-02
   0   105    0.147159D-01    0.996720D+00   -0.456382D+01    0.940800D-02
   0   106    0.152548D-01    0.997803D+00    0.215638D+01    0.646181D-02
   0   107    0.149154D-01    0.996834D+00   -0.416036D+01    0.907745D-02
   0   108    0.142411D-01    0.997720D+00   -0.124111D+01    0.710442D-02
   0   109    0.142748D-01    0.997513D+00    0.525522D+01    0.657871D-02
   0   110    0.149812D-01    0.998479D+00   -0.456354D+01    0.451568D-02
   0   111    0.147632D-01    0.997866D+00   -0.417528D+01    0.592024D-02
   0   112    0.146457D-01    0.998621D+00   -0.230574D+01    0.410651D-02
   0   113    0.146794D-01    0.997278D+00    0.961615D+01    0.707067D-02
   0   114    0.145992D-01    0.996262D+00   -0.241365D+01    0.101666D-01
   0   115    0.148013D-01    0.997552D+00   -0.537418D+01    0.765441D-02
   0   116    0.149018D-01    0.998162D+00    0.239507D+01    0.591193D-02
   0   117    0.148704D-01    0.996437D+00   -0.384239D+01    0.974536D-02
   0   118    0.147489D-01    0.996089D+00    0.468201D+01    0.108002D-01
   0   119    0.146178D-01    0.997257D+00    0.379625D+01    0.832037D-02
   0   120    0.146569D-01    0.998283D+00   -0.633626D+01    0.547269D-02
   0   121    0.147193D-01    0.997486D+00   -0.592186D+01    0.673436D-02
   0   122    0.146326D-01    0.998298D+00   -0.342462D+01    0.524390D-02
   0   123    0.144952D-01    0.997287D+00   -0.833676D+01    0.747308D-02
   0   124    0.146425D-01    0.997069D+00    0.686673D+00    0.807372D-02
   0   125    0.143586D-01    0.997838D+00    0.719918D+01    0.554782D-02
   0   126    0.143386D-01    0.997514D+00    0.548157D+01    0.760562D-02
   0   127    0.145983D-01    0.996980D+00    0.360703D+01    0.915544D-02
   0   128    0.142470D-01    0.997792D+00    0.404014D+01    0.593358D-02
   0   129    0.144086D-01    0.998165D+00   -0.307782D+01    0.582873D-02
   0   130    0.144622D-01    0.998315D+00   -0.235438D+00    0.494630D-02
   0   131    0.146710D-01    0.998545D+00    0.420175D+00    0.384142D-02
   0   132    0.144113D-01    0.997511D+00    0.107771D+01    0.669271D-02
   0   133    0.143503D-01    0.997252D+00   -0.852342D+00    0.829426D-02
   0   134    0.143583D-01    0.998517D+00   -0.720976D+01    0.349791D-02
   0   135    0.142226D-01    0.998018D+00   -0.196535D+01    0.516389D-02
   0   136    0.143871D-01    0.998381D+00    0.755821D+01    0.455445D-02
   0   137    0.144742D-01    0.997456D+00    0.551937D+01    0.701222D-02
   0   138    0.145945D-01    0.997640D+00   -0.679487D+01    0.714553D-02
   0   139    0.143708D-01    0.997206D+00   -0.312343D+01    0.774479D-02
   0   140    0.142230D-01    0.997231D+00    0.366908D+01    0.760952D-02
   0   141    0.143896D-01    0.998186D+00    0.616852D+01    0.521283D-02
   0   142    0.140226D-01    0.998321D+00    0.319226D+01    0.541874D-02
   0   143    0.139701D-01    0.998459D+00    0.573272D+01    0.351836D-02
   0   144    0.144567D-01    0.997600D+00   -0.201672D+01    0.720167D-02
   0   145    0.143843D-01    0.998615D+00   -0.572854D-01    0.469739D-02
   0   146    0.146425D-01    0.998319D+00   -0.464312D+01    0.509374D-02
   0   147    0.146073D-01    0.998819D+00    0.586105D+01    0.279920D-02
   0   148    0.141925D-01    0.999016D+00    0.276125D+00    0.305185D-02
   0   149    0.142708D-01    0.999365D+00   -0.303577D+01    0.167044D-02
   0   150    0.146009D-01    0.998799D+00    0.636301D+01    0.387314D-02
   0   151    0.148345D-01    0.998533D+00   -0.344741D+01    0.390736D-02
   0   152    0.147843D-01    0.998092D+00   -0.854186D+00    0.583953D-02
   0   153    0.148598D-01    0.997940D+00    0.796678D+01    0.622010D-02
   0   154    0.151025D-01    0.997173D+00   -0.602619D+01    0.846302D-02
   0   155    0.147451D-01    0.997968D+00    0.532598D+01    0.642598D-02
   0   156    0.146659D-01    0.997049D+00    0.601883D+01    0.834689D-02
   0   157    0.146922D-01    0.996599D+00   -0.441826D+01    0.960547D-02
   0   158    0.155625D-01    0.996151D+00    0.483182D+01    0.108103D-01
   0   159    0.151853D-01    0.995098D+00   -0.342545D+01    0.136350D-01
   0   160    0.155721D-01    0.993558D+00    0.532127D+01    0.190824D-01
   0   161    0.157998D-01    0.993843D+00   -0.912378D+01    0.180662D-01
   0   162    0.155977D-01    0.994413D+00   -0.557941D+01    0.166672D-01
   0   163    0.163287D-01    0.992170D+00    0.144710D+01    0.218275D-01
   0   164    0.167737D-01    0.990937D+00    0.614981D+01    0.263773D-01
   0   165    0.177340D-01    0.987099D+00    0.490098D+01    0.371305D-01
   0   166    0.198758D-01    0.982535D+00   -0.866751D+01    0.495125D-01
   0   167    0.218865D-01    0.971869D+00   -0.763028D+01    0.791988D-01
   0   168    0.246184D-01    0.956991D+00    0.116320D+02    0.116867D+00
   0   169    0.278767D-01    0.933891D+00   -0.121077D+02    0.167274D+00
   0   170    0.265520D-01    0.895459D+00    0.121999D+02    0.231780D+00
   0   171    0.226184D-01    0.837710D+00   -0.271697D+00    0.291962D+00
   0   172    0.154956D-01    0.756821D+00   -0.376029D+01    0.338365D+00
   0   173    0.828107D-02    0.657029D+00    0.649019D+00    0.368860D+00
   0   174    0.373718D-02    0.548004D+00    0.365803D+01    0.387699D+00
   0   175    0.156771D-02    0.440996D+00    0.985840D+00    0.399335D+00
   0   176    0.592496D-03    0.344092D+00    0.560891D+00    0.406687D+00
   0   177    0.209161D-03    0.261504D+00    0.122703D+00    0.411462D+00
   0   178    0.733459D-04    0.194248D+00    0.642249D-01    0.414640D+00
   0   179    0.244330D-04    0.141458D+00    0.227169D-01    0.416791D+00
   0   180    0.801294D-05    0.101245D+00    0.904118D-02    0.418262D+00
   0   181    0.254802D-05    0.713712D-01    0.120665D-02    0.419273D+00
   0   182    0.786818D-06    0.496471D-01    0.416547D-03    0.419969D+00
   0   183    0.238823D-06    0.341353D-01    0.195072D-03    0.420447D+00
   0   184    0.689494D-07    0.232318D-01    0.523846D-04    0.420774D+00
   0   185    0.203878D-07    0.156708D-01    0.225659D-04    0.420996D+00
   0   186    0.591431D-08    0.104887D-01    0.217952D-05    0.421147D+00
   0   187    0.174940D-08    0.697280D-02    0.119288D-05    0.421248D+00
   0   188    0.505391D-09    0.460811D-02    0.212982D-06    0.421316D+00
   0   189    0.150921D-09    0.302969D-02    0.166544D-06    0.421361D+00
   0   190    0.458801D-10    0.198300D-02    0.275505D-07    0.421391D+00
   0   191    0.143744D-10    0.129283D-02    0.166105D-07    0.421410D+00
   0   192    0.427538D-11    0.839989D-03    0.412346D-08    0.421423D+00
   0   193    0.127624D-11    0.544133D-03    0.150264D-08    0.421432D+00
   0   194    0.373514D-12    0.351560D-03    0.275097D-09    0.421437D+00
   0   195    0.111134D-12    0.226618D-03    0.651204D-10    0.421441D+00
   0   196    0.323591D-13    0.145786D-03    0.330371D-10    0.421443D+00
   0   197    0.884035D-14    0.936191D-04    0.103267D-10    0.421444D+00
   0   198    0.250639D-14    0.600253D-04    0.915330D-12    0.421445D+00
   0   199    0.690198D-15    0.384329D-04    0.751794D-12    0.421446D+00
   0   200    0.196891D-15    0.245777D-04    0.855708D-13    0.421446D+00
   0   201    0.523939D-16    0.157003D-04    0.517976D-13    0.421447D+00
   0   202    0.146727D-16    0.100197D-04    0.159016D-14    0.421447D+00
   0   203    0.389749D-17    0.638894D-05    0.344341D-14    0.421447D+00
   0   204    0.101194D-17    0.407071D-05    0.273767D-15    0.421447D+00
   0   205    0.259529D-18    0.259188D-05    0.257352D-15    0.421447D+00
   0   206    0.684461D-19    0.164928D-05    0.560182D-16    0.421447D+00
   0   207    0.184526D-19    0.104891D-05    0.335242D-17    0.421447D+00
   0   208    0.471663D-20    0.666756D-06    0.310987D-17    0.421447D+00
   0   209    0.120221D-20    0.423652D-06    0.111843D-17    0.421447D+00
   0   210    0.302772D-21    0.269081D-06    0.173979D-18    0.421447D+00
   0   211    0.776914D-22    0.170846D-06    0.863134D-19    0.421447D+00
   0   212    0.191874D-22    0.108441D-06    0.866072D-20    0.421447D+00
   0   213    0.496901D-23    0.688121D-07    0.250877D-20    0.421447D+00
   0   214    0.124121D-23    0.436544D-07    0.167929D-20    0.421447D+00
   0   215    0.316237D-24    0.276883D-07    0.260350D-21    0.421447D+00
   0   216    0.789684D-25    0.175582D-07    0.665477D-22    0.421447D+00
   0   217    0.197865D-25    0.111324D-07    0.220831D-22    0.421447D+00
   0   218    0.486901D-26    0.705719D-08    0.639436D-23    0.421447D+00
   0   219    0.122948D-26    0.447316D-08    0.105092D-23    0.421447D+00
   0   220    0.303397D-27    0.283494D-08    0.292958D-24    0.421447D+00
   0   221    0.750282D-28    0.179650D-08    0.669913D-25    0.421447D+00
   0   222    0.179455D-28    0.113832D-08    0.105405D-25    0.421447D+00
   0   223    0.433990D-29    0.721217D-09    0.253430D-26    0.421447D+00
   0   224    0.109424D-29    0.456910D-09    0.992538D-27    0.421447D+00
   0   225    0.272614D-30    0.289444D-09    0.137598D-27    0.421447D+00
   0   226    0.668366D-31    0.183345D-09    0.920990D-28    0.421447D+00
   0   227    0.158028D-31    0.116130D-09    0.152475D-28    0.421447D+00
   0   228    0.375163D-32    0.735523D-10    0.257282D-29    0.421447D+00
   0   229    0.906085D-33    0.465826D-10    0.867594D-30    0.421447D+00
   0   230    0.225252D-33    0.295005D-10    0.315117D-30    0.421447D+00
   0   231    0.538469D-34    0.186815D-10    0.217237D-31    0.421447D+00
   0   232    0.129851D-34    0.118298D-10    0.147839D-31    0.421447D+00
   0   233    0.305694D-35    0.749065D-11    0.288748D-32    0.421447D+00
   0   234    0.744829D-36    0.474290D-11    0.417241D-33    0.421447D+00
   0   235    0.179679D-36    0.300296D-11    0.635824D-34    0.421447D+00
   0   236    0.435903D-37    0.190125D-11    0.221604D-34    0.421447D+00
   0   237    0.105278D-37    0.120367D-11    0.107678D-34    0.421447D+00
   0   238    0.254608D-38    0.762012D-12    0.358369D-35    0.421447D+00
   0   239    0.604213D-39    0.482389D-12    0.222831D-36    0.421447D+00
   0   240    0.144574D-39    0.305363D-12    0.170261D-36    0.421447D+00
   0   241    0.351902D-40    0.193294D-12    0.241045D-37    0.421447D+00
   0   242    0.828933D-41    0.122350D-12    0.675226D-38    0.421447D+00
   0   243    0.199574D-41    0.774416D-13    0.172699D-38    0.421447D+00
   0   244    0.483395D-42    0.490149D-13    0.674851D-39    0.421447D+00
   0   245    0.113959D-42    0.310217D-13    0.153470D-39    0.421447D+00
   0   246    0.273382D-43    0.196330D-13    0.155244D-40    0.421447D+00
   0   247    0.650767D-44    0.124249D-13    0.735743D-41    0.421447D+00
   0   248    0.154634D-44    0.786293D-14    0.192679D-41    0.421447D+00
   0   249    0.359788D-45    0.497576D-14    0.285116D-42    0.421447D+00
   0   250    0.857339D-46    0.314862D-14    0.267812D-43    0.421447D+00
   0   251    0.205820D-46    0.199235D-14    0.242478D-43    0.421447D+00
   0   252    0.494193D-47    0.126065D-14    0.335132D-44    0.421447D+00
   0   253    0.116874D-47    0.797650D-15    0.125291D-44    0.421447D+00
   0   254    0.278757D-48    0.504678D-15    0.252945D-45    0.421447D+00
   0   255    0.656894D-49    0.319302D-15    0.799431D-46    0.421447D+00
   0   256    0.159920D-49    0.202012D-15    0.171652D-46    0.421447D+00
   0   257    0.388934D-50    0.127802D-15    0.391677D-47    0.421447D+00
   0   258    0.948228D-51    0.808508D-16    0.542869D-48    0.421447D+00
   0   259    0.219122D-51    0.511469D-16    0.103224D-48    0.421447D+00
   0   260    0.529674D-52    0.323550D-16    0.734530D-49    0.421447D+00
   0   261    0.127732D-52    0.204668D-16    0.122132D-49    0.421447D+00
   0   262    0.305863D-53    0.129464D-16    0.307454D-50    0.421447D+00
   0   263    0.720692D-54    0.818904D-17    0.809895D-51    0.421447D+00
   0   264    0.172787D-54    0.517973D-17    0.154480D-51    0.421447D+00
   0   265    0.423584D-55    0.327620D-17    0.390985D-52    0.421447D+00
   0   266    0.991105D-56    0.207215D-17    0.145800D-52    0.421447D+00
   0   267    0.236763D-56    0.131058D-17    0.635719D-54    0.421447D+00
   0   268    0.551911D-57    0.828883D-18    0.762059D-54    0.421447D+00
   0   269    0.128290D-57    0.524220D-18    0.641292D-55    0.421447D+00
   0   270    0.291561D-58    0.331530D-18    0.431113D-55    0.421447D+00
   0   271    0.709535D-59    0.209664D-18    0.181347D-56    0.421447D+00
   0   272    0.168002D-59    0.132591D-18    0.102485D-56    0.421447D+00
   0   273    0.404091D-60    0.838483D-19    0.453769D-57    0.421447D+00
   0   274    0.963676D-61    0.530231D-19    0.126189D-57    0.421447D+00
   0   275    0.222830D-61    0.335294D-19    0.335498D-58    0.421447D+00
   0   276    0.529999D-62    0.212020D-19    0.653656D-59    0.421447D+00
   0   277    0.127560D-62    0.134065D-19    0.542315D-60    0.421447D+00
   0   278    0.298539D-63    0.847710D-20    0.267068D-60    0.421447D+00
   0   279    0.709286D-64    0.536002D-20    0.741487D-61    0.421447D+00
   0   280    0.166843D-64    0.338903D-20    0.115592D-61    0.421447D+00
   0   281    0.385196D-65    0.214275D-20    0.525204D-62    0.421447D+00
   0   282    0.925995D-66    0.135474D-20    0.904967D-63    0.421447D+00
   0   283    0.218146D-66    0.856501D-21    0.177419D-63    0.421447D+00
   0   284    0.530925D-67    0.541484D-21    0.750507D-64    0.421447D+00
   0   285    0.123810D-67    0.342317D-21    0.488722D-65    0.421447D+00
   0   286    0.294297D-68    0.216399D-21    0.357978D-65    0.421447D+00
   0   287    0.679885D-69    0.136793D-21    0.323178D-66    0.421447D+00
   0   288    0.162004D-69    0.864679D-22    0.153714D-66    0.421447D+00
   0   289    0.370885D-70    0.546545D-22    0.277869D-67    0.421447D+00
   0   290    0.886507D-71    0.345441D-22    0.125590D-67    0.421447D+00
   0   291    0.207387D-71    0.218323D-22    0.133248D-68    0.421447D+00
   0   292    0.502810D-72    0.137974D-22    0.365003D-69    0.421447D+00
   0   293    0.116749D-72    0.871903D-23    0.115410D-69    0.421447D+00
   0   294    0.279138D-73    0.550944D-23    0.254991D-70    0.421447D+00
   0   295    0.666219D-74    0.348108D-23    0.202986D-71    0.421447D+00
   0   296    0.158713D-74    0.219930D-23    0.107592D-71    0.421447D+00
   0   297    0.363084D-75    0.138936D-23    0.278032D-72    0.421447D+00
   0   298    0.845388D-76    0.877612D-24    0.877671D-73    0.421447D+00
   0   299    0.199321D-76    0.554299D-24    0.115355D-73    0.421447D+00
   0   300    0.475092D-77    0.350055D-24    0.374030D-74    0.421447D+00
   0   301    0.116427D-77    0.221042D-24    0.118095D-74    0.421447D+00
   0   302    0.276129D-78    0.139558D-24    0.282837D-75    0.421447D+00
   0   303    0.645789D-79    0.880994D-25    0.817888D-76    0.421447D+00
   0   304    0.149932D-79    0.556063D-25    0.141421D-76    0.421447D+00
   0   305    0.351291D-80    0.350916D-25    0.161041D-77    0.421447D+00
   0   306    0.825756D-81    0.221415D-25    0.620832D-78    0.421447D+00
   0   307    0.194824D-81    0.139678D-25    0.116237D-78    0.421447D+00
   0   308    0.457761D-82    0.880971D-26    0.487730D-79    0.421447D+00
   0   309    0.107512D-82    0.555523D-26    0.128048D-79    0.421447D+00
   0   310    0.253724D-83    0.350223D-26    0.205134D-80    0.421447D+00
   0   311    0.619099D-84    0.220741D-26    0.368323D-81    0.421447D+00
   0   312    0.140632D-84    0.139094D-26    0.900363D-82    0.421447D+00
   0   313    0.340065D-85    0.876234D-27    0.338937D-82    0.421447D+00
   0   314    0.816829D-86    0.551832D-27    0.672684D-83    0.421447D+00
   0   315    0.192081D-86    0.347427D-27    0.237679D-83    0.421447D+00
   0   316    0.453035D-87    0.218667D-27    0.599437D-84    0.421447D+00
   0   317    0.104904D-87    0.137582D-27    0.605599D-85    0.421447D+00
   0   318    0.243727D-88    0.865342D-28    0.936412D-86    0.421447D+00
   0   319    0.567385D-89    0.544073D-28    0.564163D-86    0.421447D+00
   0   320    0.132527D-89    0.341950D-28    0.508442D-87    0.421447D+00
   0   321    0.303376D-90    0.214830D-28    0.316236D-87    0.421447D+00
   0   322    0.701598D-91    0.134912D-28    0.482404D-88    0.421447D+00
   0   323    0.166069D-91    0.846875D-29    0.191065D-88    0.421447D+00
   0   324    0.382134D-92    0.531368D-29    0.369914D-89    0.421447D+00
   0   325    0.916496D-93    0.333250D-29    0.896998D-90    0.421447D+00
   0   326    0.217576D-93    0.208900D-29    0.182916D-90    0.421447D+00
   0   327    0.513912D-94    0.130885D-29    0.731521D-91    0.421447D+00
   0   328    0.123629D-94    0.819636D-30    0.444630D-92    0.421447D+00
   0   329    0.295123D-95    0.513005D-30    0.193188D-92    0.421447D+00
   0   330    0.690323D-96    0.320912D-30    0.405314D-93    0.421447D+00
   0   331    0.162350D-96    0.200634D-30    0.948149D-94    0.421447D+00
   0   332    0.397905D-97    0.125365D-30    0.420803D-94    0.421447D+00
   0   333    0.933947D-98    0.782863D-31    0.695626D-95    0.421447D+00
   0   334    0.215723D-98    0.488576D-31    0.273352D-95    0.421447D+00
   0   335    0.510671D-99    0.304724D-31    0.459329D-96    0.421447D+00
   0   336    0.115973D-99    0.189934D-31    0.975814D-97    0.421447D+00
   0   337    0.278555-100    0.118308D-31    0.391542D-97    0.421447D+00
   0   338    0.680525-101    0.736431D-32    0.347901D-98    0.421447D+00
   0   339    0.156479-101    0.458092D-32    0.131350D-98    0.421447D+00
   0   340    0.357588-102    0.284753D-32    0.513340D-99    0.421447D+00
   0   341    0.840966-103    0.176878D-32    0.711330-100    0.421447D+00
   0   342    0.194454-103    0.109790D-32    0.284272-100    0.421447D+00
   0   343    0.459155-104    0.680968D-33    0.407099-101    0.421447D+00
   0   344    0.106776-104    0.422049D-33    0.467355-102    0.421447D+00
   0   345    0.262102-105    0.261375D-33    0.142722-102    0.421447D+00
   0   346    0.620633-106    0.161743D-33    0.606522-103    0.421447D+00
   0   347    0.146270-106    0.100010D-33    0.656900-104    0.421447D+00
   0   348    0.355546-107    0.617883D-34    0.349065-104    0.421447D+00
   0   349    0.839529-108    0.381430D-34    0.500295-105    0.421447D+00
   0   350    0.192984-108    0.235267D-34    0.199038-105    0.421447D+00
   0   351    0.439393-109    0.144991D-34    0.364656-106    0.421447D+00
   0   352    0.104712-109    0.892795D-35    0.142536-106    0.421447D+00
   0   353    0.252542-110    0.549270D-35    0.284419-107    0.421447D+00
   0   354    0.583463-111    0.337629D-35    0.744400-108    0.421447D+00
   0   355    0.141386-111    0.207352D-35    0.752207-109    0.421447D+00
   0   356    0.329245-112    0.127230D-35    0.443325-109    0.421447D+00
   0   357    0.769813-113    0.779965D-36    0.929578-110    0.421447D+00
   0   358    0.186467-113    0.477710D-36    0.176094-110    0.421447D+00
   0   359    0.455137-114    0.292316D-36    0.287136-111    0.421447D+00
   0   360    0.105220-114    0.178705D-36    0.127033-111    0.421447D+00
   0   361    0.246653-115    0.109147D-36    0.360755-112    0.421447D+00
   0   362    0.568373-116    0.666000D-37    0.474030-113    0.421447D+00
   0   363    0.130693-116    0.405996D-37    0.748753-114    0.421447D+00
   0   364    0.309856-117    0.247258D-37    0.380822-114    0.421447D+00
   0   365    0.739551-118    0.150438D-37    0.195890-115    0.421447D+00
   0   366    0.173730-118    0.914404D-38    0.777055-116    0.421447D+00
   0   367    0.395233-119    0.555253D-38    0.510162-116    0.421447D+00
   0   368    0.926180-120    0.336832D-38    0.112642-116    0.421447D+00
   0   369    0.219327-120    0.204127D-38    0.128904-117    0.421447D+00
   0   370    0.506031-121    0.123581D-38    0.755821-118    0.421447D+00
   0   371    0.120480-121    0.747421D-39    0.804200-119    0.421447D+00
   0   372    0.285629-122    0.451581D-39    0.270789-119    0.421447D+00
   0   373    0.675095-123    0.272560D-39    0.342639-120    0.421447D+00
   0   374    0.161265-123    0.164340D-39    0.690803-121    0.421447D+00
   0   375    0.376400-124    0.989861D-40    0.412043-121    0.421447D+00
   0   376    0.866682-125    0.595600D-40    0.817416-122    0.421447D+00
   0   377    0.207103-125    0.357999D-40    0.110769-122    0.421447D+00
   0   378    0.490589-126    0.214959D-40    0.698958-123    0.421447D+00
   0   379    0.114232-126    0.128935D-40    0.106530-123    0.421447D+00
   0   380    0.271520-127    0.772552D-41    0.221560-124    0.421447D+00
   0   381    0.647887-128    0.462407D-41    0.204924-125    0.421447D+00
   0   382    0.145988-128    0.276477D-41    0.725389-126    0.421447D+00
   0   383    0.335535-129    0.165131D-41    0.458257-126    0.421447D+00
   0   384    0.794610-130    0.985221D-42    0.111254-126    0.421447D+00
   0   385    0.191249-130    0.587180D-42    0.136991-127    0.421447D+00
   0   386    0.449744-131    0.349575D-42    0.321142-128    0.421447D+00
   0   387    0.104111-131    0.207893D-42    0.792508-129    0.421447D+00
   0   388    0.242493-132    0.123500D-42    0.213140-129    0.421447D+00
   0   389    0.565875-133    0.732857D-43    0.580422-130    0.421447D+00
   0   390    0.132407-133    0.434404D-43    0.186971-130    0.421447D+00
   0   391    0.319254-134    0.257206D-43    0.138736-131    0.421447D+00
   0   392    0.732039-135    0.152109D-43    0.912424-132    0.421447D+00
   0   393    0.171542-135    0.898355D-44    0.168321-132    0.421447D+00
   0   394    0.400650-136    0.529608D-44    0.539818-133    0.421447D+00
   0   395    0.945572-137    0.311233D-44    0.272490-134    0.421447D+00
   0   396    0.216629-137    0.181593D-44    0.987813-135    0.421447D+00
   0   397    0.517259-138    0.103937D-44    0.325749-135    0.421447D+00