variables =  "IG"  "JG"  "PHI"  "Temp."  "Latent_heat"  "mm"
ZONE  I=  401  J=  101
   0     0    0.100000D+01    0.574615D+00    0.000000D+00    0.383861D+00
   0     1    0.100000D+01    0.574615D+00    0.000000D+00    0.383861D+00
   0     2    0.100000D+01    0.578388D+00    0.000000D+00    0.383290D+00
   0     3    0.100000D+01    0.585859D+00    0.000000D+00    0.382131D+00
   0     4    0.100000D+01    0.596874D+00    0.000000D+00    0.380348D+00
   0     5    0.100000D+01    0.611215D+00    0.000000D+00    0.377883D+00
   0     6    0.100000D+01    0.628597D+00    0.000000D+00    0.374658D+00
   0     7    0.100000D+01    0.648687D+00    0.000000D+00    0.370561D+00
   0     8    0.100000D+01    0.671107D+00   -0.399680D-10    0.365445D+00
   0     9    0.100000D+01    0.695453D+00    0.799361D-10    0.359114D+00
   0    10    0.100000D+01    0.721300D+00    0.700773D-08    0.351311D+00
   0    11    0.100000D+01    0.748222D+00    0.473355D-07    0.341693D+00
   0    12    0.100000D+01    0.775799D+00    0.284812D-06    0.329808D+00
   0    13    0.100000D+01    0.803636D+00    0.819744D-07    0.315057D+00
   0    14    0.100000D+01    0.831374D+00   -0.141187D-05    0.296647D+00
   0    15    0.100000D+01    0.858707D+00   -0.174319D-05    0.273542D+00
   0    16    0.999997D+00    0.885404D+00    0.155852D-02    0.244434D+00
   0    17    0.999975D+00    0.911346D+00    0.728047D-02    0.207759D+00
   0    18    0.999810D+00    0.936574D+00    0.127995D-01    0.161878D+00
   0    19    0.998665D+00    0.961356D+00    0.104146D+01    0.105567D+00
   0    20    0.990883D+00    0.986183D+00    0.607745D+01    0.391595D-01
   0    21    0.944769D+00    0.101191D+01    0.347669D+01   -0.335201D-01
   0    22    0.729365D+00    0.103616D+01    0.955684D+02   -0.981114D-01
   0    23    0.247418D+00    0.103734D+01    0.118429D+03   -0.997859D-01
   0    24    0.906701D-01    0.101888D+01    0.262315D+02   -0.513286D-01
   0    25    0.501672D-01    0.996954D+00   -0.234047D+02    0.823264D-02
   0    26    0.358446D-01    0.971801D+00   -0.995439D+00    0.791590D-01
   0    27    0.289160D-01    0.940207D+00   -0.971872D+01    0.155104D+00
   0    28    0.241576D-01    0.894225D+00   -0.970030D+01    0.232999D+00
   0    29    0.183909D-01    0.831328D+00    0.721606D+01    0.297017D+00
   0    30    0.117327D-01    0.750768D+00    0.957159D-01    0.340822D+00
   0    31    0.663793D-02    0.655844D+00   -0.106097D+01    0.369082D+00
   0    32    0.328959D-02    0.554082D+00   -0.296215D+00    0.386859D+00
   0    33    0.142625D-02    0.453499D+00    0.134124D+00    0.398194D+00
   0    34    0.592087D-03    0.360759D+00    0.156631D+00    0.405572D+00
   0    35    0.227838D-03    0.279762D+00    0.501183D-01    0.410496D+00
   0    36    0.830453D-04    0.212002D+00    0.776960D-01    0.413851D+00
   0    37    0.299569D-04    0.157360D+00    0.193783D-01    0.416169D+00
   0    38    0.104153D-04    0.114642D+00    0.102502D-01    0.417785D+00
   0    39    0.350720D-05    0.821237D-01    0.387397D-02    0.418916D+00
   0    40    0.115093D-05    0.579385D-01    0.726194D-03    0.419707D+00
   0    41    0.380872D-06    0.403136D-01    0.168914D-03    0.420258D+00
   0    42    0.119745D-06    0.276985D-01    0.357011D-04    0.420641D+00
   0    43    0.368638D-07    0.188125D-01    0.265720D-04    0.420904D+00
   0    44    0.116856D-07    0.126423D-01    0.714000D-05    0.421085D+00
   0    45    0.343112D-08    0.841261D-02    0.770919D-06    0.421207D+00
   0    46    0.106480D-08    0.554678D-02    0.491152D-06    0.421289D+00
   0    47    0.323409D-09    0.362568D-02    0.298675D-06    0.421344D+00
   0    48    0.100921D-09    0.235053D-02    0.573368D-07    0.421380D+00
   0    49    0.323573D-10    0.151188D-02    0.259574D-07    0.421404D+00
   0    50    0.969997D-11    0.965088D-03    0.121686D-07    0.421420D+00
   0    51    0.297661D-11    0.611514D-03    0.279970D-08    0.421430D+00
   0    52    0.877969D-12    0.384689D-03    0.480085D-09    0.421436D+00
   0    53    0.257714D-12    0.240287D-03    0.315878D-09    0.421440D+00
   0    54    0.728707D-13    0.149043D-03    0.612696D-10    0.421443D+00
   0    55    0.212293D-13    0.918087D-04    0.349712D-11    0.421444D+00
   0    56    0.605802D-14    0.561652D-04    0.344412D-11    0.421445D+00
   0    57    0.167739D-14    0.341255D-04    0.502447D-12    0.421446D+00
   0    58    0.459484D-15    0.205935D-04    0.212399D-12    0.421446D+00
   0    59    0.122093D-15    0.123432D-04    0.548132D-13    0.421447D+00
   0    60    0.329249D-16    0.734807D-05    0.379914D-13    0.421447D+00
   0    61    0.863517D-17    0.434482D-05    0.568821D-14    0.421447D+00
   0    62    0.231051D-17    0.255167D-05    0.111980D-14    0.421447D+00
   0    63    0.619902D-18    0.148843D-05    0.472461D-15    0.421447D+00
   0    64    0.159030D-18    0.862357D-06    0.139446D-15    0.421447D+00
   0    65    0.414671D-19    0.496246D-06    0.129318D-16    0.421447D+00
   0    66    0.106266D-19    0.283634D-06    0.999825D-17    0.421447D+00
   0    67    0.266582D-20    0.161017D-06    0.664299D-18    0.421447D+00
   0    68    0.649685D-21    0.907889D-07    0.285106D-18    0.421447D+00
   0    69    0.158205D-21    0.508446D-07    0.146263D-18    0.421447D+00
   0    70    0.398333D-22    0.282818D-07    0.236225D-19    0.421447D+00
   0    71    0.953233D-23    0.156249D-07    0.773614D-20    0.421447D+00
   0    72    0.238595D-23    0.857394D-08    0.121177D-20    0.421447D+00
   0    73    0.583736D-24    0.467298D-08    0.467883D-21    0.421447D+00
   0    74    0.136423D-24    0.252965D-08    0.192260D-21    0.421447D+00
   0    75    0.330780D-25    0.136013D-08    0.350983D-22    0.421447D+00
   0    76    0.756165D-26    0.726371D-09    0.383203D-23    0.421447D+00
   0    77    0.180667D-26    0.385295D-09    0.116065D-23    0.421447D+00
   0    78    0.425016D-27    0.202997D-09    0.644029D-24    0.421447D+00
   0    79    0.972303D-28    0.106231D-09    0.800603D-25    0.421447D+00
   0    80    0.223636D-28    0.552178D-10    0.204125D-25    0.421447D+00
   0    81    0.509327D-29    0.285087D-10    0.562381D-26    0.421447D+00
   0    82    0.116073D-29    0.146201D-10    0.139868D-26    0.421447D+00
   0    83    0.257373D-30    0.744735D-11    0.310066D-27    0.421447D+00
   0    84    0.559592D-31    0.376822D-11    0.724729D-28    0.421447D+00
   0    85    0.126141D-31    0.189390D-11    0.769853D-29    0.421447D+00
   0    86    0.283344D-32    0.945518D-12    0.264922D-29    0.421447D+00
   0    87    0.623152D-33    0.468900D-12    0.292375D-30    0.421447D+00
   0    88    0.135271D-33    0.230989D-12    0.153720D-30    0.421447D+00
   0    89    0.299962D-34    0.113034D-12    0.426330D-31    0.421447D+00
   0    90    0.635596D-35    0.549468D-13    0.101159D-31    0.421447D+00
   0    91    0.133608D-35    0.265334D-13    0.146205D-32    0.421447D+00
   0    92    0.286079D-36    0.127282D-13    0.173221D-33    0.421447D+00
   0    93    0.627178D-37    0.606559D-14    0.390700D-34    0.421447D+00
   0    94    0.131011D-37    0.287154D-14    0.178511D-34    0.421447D+00
   0    95    0.269939D-38    0.135052D-14    0.386992D-35    0.421447D+00
   0    96    0.563215D-39    0.631006D-15    0.415694D-36    0.421447D+00
   0    97    0.113309D-39    0.292903D-15    0.100069D-36    0.421447D+00
   0    98    0.234573D-40    0.135075D-15    0.190399D-37    0.421447D+00
   0    99    0.477827D-41    0.618868D-16    0.358047D-38    0.421447D+00
   0   100    0.953558D-42    0.281706D-16    0.100284D-38    0.421447D+00
   0   101    0.198100D-42    0.127402D-16    0.303344D-39    0.421447D+00
   0   102    0.387488D-43    0.572466D-17    0.301405D-40    0.421447D+00
   0   103    0.743407D-44    0.255575D-17    0.651585D-41    0.421447D+00
   0   104    0.146717D-44    0.113369D-17    0.135199D-41    0.421447D+00
   0   105    0.291500D-45    0.499667D-18    0.406879D-42    0.421447D+00
   0   106    0.558563D-46    0.218820D-18    0.591218D-43    0.421447D+00
   0   107    0.104620D-46    0.952183D-19    0.108256D-43    0.421447D+00
   0   108    0.199525D-47    0.411708D-19    0.285387D-44    0.421447D+00
   0   109    0.367918D-48    0.176889D-19    0.702492D-45    0.421447D+00
   0   110    0.692724D-49    0.755199D-20    0.110391D-45    0.421447D+00
   0   111    0.123713D-49    0.320391D-20    0.259495D-46    0.421447D+00
   0   112    0.228254D-50    0.135072D-20    0.417738D-47    0.421447D+00
   0   113    0.411148D-51    0.565879D-21    0.619367D-48    0.421447D+00
   0   114    0.736700D-52    0.235594D-21    0.129411D-48    0.421447D+00
   0   115    0.129822D-52    0.974749D-22    0.161462D-49    0.421447D+00
   0   116    0.231257D-53    0.400793D-22    0.325779D-50    0.421447D+00
   0   117    0.403959D-54    0.163777D-22    0.688885D-51    0.421447D+00
   0   118    0.693845D-55    0.665117D-23    0.855983D-52    0.421447D+00
   0   119    0.121517D-55    0.268451D-23    0.128022D-52    0.421447D+00
   0   120    0.205485D-56    0.107687D-23    0.323585D-53    0.421447D+00
   0   121    0.353285D-57    0.429337D-24    0.553382D-54    0.421447D+00
   0   122    0.608550D-58    0.170130D-24    0.118653D-54    0.421447D+00
   0   123    0.103602D-58    0.670063D-25    0.175123D-55    0.421447D+00
   0   124    0.172680D-59    0.262310D-25    0.214286D-56    0.421447D+00
   0   125    0.282118D-60    0.102067D-25    0.660783D-57    0.421447D+00
   0   126    0.458651D-61    0.394759D-26    0.107218D-57    0.421447D+00
   0   127    0.749768D-62    0.151764D-26    0.153620D-58    0.421447D+00
   0   128    0.120138D-62    0.579962D-27    0.154683D-59    0.421447D+00
   0   129    0.190374D-63    0.220311D-27    0.429746D-60    0.421447D+00
   0   130    0.307880D-64    0.831924D-28    0.530798D-61    0.421447D+00
   0   131    0.479206D-65    0.312286D-28    0.118978D-61    0.421447D+00
   0   132    0.748174D-66    0.116533D-28    0.170582D-62    0.421447D+00
   0   133    0.116108D-66    0.432301D-29    0.261114D-63    0.421447D+00
   0   134    0.177951D-67    0.159429D-29    0.313031D-64    0.421447D+00
   0   135    0.273396D-68    0.584524D-30    0.584832D-65    0.421447D+00
   0   136    0.410705D-69    0.213059D-30    0.915404D-66    0.421447D+00
   0   137    0.631196D-70    0.772094D-31    0.131387D-66    0.421447D+00
   0   138    0.957006D-71    0.278175D-31    0.205307D-67    0.421447D+00
   0   139    0.140073D-71    0.996448D-32    0.264185D-68    0.421447D+00
   0   140    0.208826D-72    0.354885D-32    0.449316D-69    0.421447D+00
   0   141    0.301016D-73    0.125668D-32    0.529234D-70    0.421447D+00
   0   142    0.438257D-74    0.442460D-33    0.111178D-70    0.421447D+00
   0   143    0.631042D-75    0.154898D-33    0.164250D-71    0.421447D+00
   0   144    0.892410D-76    0.539195D-34    0.144121D-72    0.421447D+00
   0   145    0.127824D-76    0.186631D-34    0.307382D-73    0.421447D+00
   0   146    0.175730D-77    0.642347D-35    0.465521D-74    0.421447D+00
   0   147    0.253058D-78    0.219841D-35    0.544985D-75    0.421447D+00
   0   148    0.350379D-79    0.748191D-36    0.963227D-76    0.421447D+00
   0   149    0.484249D-80    0.253213D-36    0.113703D-76    0.421447D+00
   0   150    0.664418D-81    0.852198D-37    0.132238D-77    0.421447D+00
   0   151    0.912255D-82    0.285221D-37    0.204894D-78    0.421447D+00
   0   152    0.122484D-82    0.949337D-38    0.335982D-79    0.421447D+00
   0   153    0.165704D-83    0.314241D-38    0.408142D-80    0.421447D+00
   0   154    0.228000D-84    0.103447D-38    0.490348D-81    0.421447D+00
   0   155    0.303821D-85    0.338684D-39    0.872203D-82    0.421447D+00
   0   156    0.404685D-86    0.110281D-39    0.106480D-82    0.421447D+00
   0   157    0.525521D-87    0.357144D-40    0.108138D-83    0.421447D+00
   0   158    0.679084D-88    0.115036D-40    0.174809D-84    0.421447D+00
   0   159    0.899910D-89    0.368532D-41    0.211122D-85    0.421447D+00
   0   160    0.114719D-89    0.117430D-41    0.231149D-86    0.421447D+00
   0   161    0.147036D-90    0.372181D-42    0.412829D-87    0.421447D+00
   0   162    0.184827D-91    0.117330D-42    0.483674D-88    0.421447D+00
   0   163    0.229961D-92    0.367914D-43    0.547769D-89    0.421447D+00
   0   164    0.282619D-93    0.114757D-43    0.849336D-90    0.421447D+00
   0   165    0.351452D-94    0.356054D-44    0.981596D-91    0.421447D+00
   0   166    0.433554D-95    0.109891D-44    0.107286D-91    0.421447D+00
   0   167    0.540656D-96    0.337386D-45    0.129860D-92    0.421447D+00
   0   168    0.657699D-97    0.103043D-45    0.196437D-93    0.421447D+00
   0   169    0.806671D-98    0.313072D-46    0.203009D-94    0.421447D+00
   0   170    0.967062D-99    0.946265D-47    0.246355D-95    0.421447D+00
   0   171    0.116661D-99    0.284532D-47    0.390075D-96    0.421447D+00
   0   172    0.138758-100    0.851152D-48    0.387720D-97    0.421447D+00
   0   173    0.165820-101    0.253308D-48    0.381864D-98    0.421447D+00
   0   174    0.195807-102    0.750007D-49    0.573164D-99    0.421447D+00
   0   175    0.229653-103    0.220934D-49    0.741952-100    0.421447D+00
   0   176    0.260150-104    0.647515D-50    0.763379-101    0.421447D+00
   0   177    0.295453-105    0.188814D-50    0.992485-102    0.421447D+00
   0   178    0.345836-106    0.547800D-51    0.116090-102    0.421447D+00
   0   179    0.390500-107    0.158133D-51    0.965202-104    0.421447D+00
   0   180    0.438800-108    0.454196D-52    0.109902-104    0.421447D+00
   0   181    0.502467-109    0.129805D-52    0.165422-105    0.421447D+00
   0   182    0.561307-110    0.369127D-53    0.172916-106    0.421447D+00
   0   183    0.626911-111    0.104449D-53    0.219552-107    0.421447D+00
   0   184    0.703346-112    0.294090D-54    0.214090-108    0.421447D+00
   0   185    0.765716-113    0.823977D-55    0.233961-109    0.421447D+00
   0   186    0.844162-114    0.229729D-55    0.262492-110    0.421447D+00
   0   187    0.910121-115    0.637366D-56    0.328625-111    0.421447D+00
   0   188    0.996039-116    0.175971D-56    0.268050-112    0.421447D+00
   0   189    0.109095-116    0.483485D-57    0.409734-113    0.421447D+00
   0   190    0.113176-117    0.132196D-57    0.408204-114    0.421447D+00
   0   191    0.118601-118    0.359713D-58    0.398901-115    0.421447D+00
   0   192    0.124778-119    0.974101D-59    0.384292-116    0.421447D+00
   0   193    0.132771-120    0.262523D-59    0.450752-117    0.421447D+00
   0   194    0.140744-121    0.704135D-60    0.410131-118    0.421447D+00
   0   195    0.149895-122    0.187964D-60    0.531109-119    0.421447D+00
   0   196    0.150979-123    0.499382D-61    0.526213-120    0.421447D+00
   0   197    0.157038-124    0.132049D-61    0.543383-121    0.421447D+00
   0   198    0.164585-125    0.347529D-62    0.617614-122    0.421447D+00
   0   199    0.168580-126    0.910345D-63    0.505866-123    0.421447D+00
   0   200    0.170337-127    0.237349D-63    0.653318-124    0.421447D+00
   0   201    0.171122-128    0.615946D-64    0.640009-125    0.421447D+00
   0   202    0.174142-129    0.159103D-64    0.687451-126    0.421447D+00
   0   203    0.175026-130    0.409073D-65    0.627473-127    0.421447D+00
   0   204    0.171961-131    0.104693D-65    0.632378-128    0.421447D+00
   0   205    0.171303-132    0.266708D-66    0.698025-129    0.421447D+00
   0   206    0.167433-133    0.676336D-67    0.655693-130    0.421447D+00
   0   207    0.161635-134    0.170727D-67    0.609891-131    0.421447D+00
   0   208    0.157306-135    0.429008D-68    0.571948-132    0.421447D+00
   0   209    0.153217-136    0.107314D-68    0.521859-133    0.421447D+00
   0   210    0.148728-137    0.267228D-69    0.508062-134    0.421447D+00
   0   211    0.143745-138    0.662444D-70    0.544455-135    0.421447D+00
   0   212    0.137089-139    0.163480D-70    0.533334-136    0.421447D+00
   0   213    0.127083-140    0.401638D-71    0.445774-137    0.421447D+00
   0   214    0.119241-141    0.982349D-72    0.466961-138    0.421447D+00
   0   215    0.112094-142    0.239202D-72    0.420359-139    0.421447D+00
   0   216    0.103999-143    0.579881D-73    0.355232-140    0.421447D+00
   0   217    0.960758-145    0.139956D-73    0.378856-141    0.421447D+00
   0   218    0.883992-146    0.336306D-74    0.319310-142    0.421447D+00
   0   219    0.807511-147    0.804580D-75    0.375022-143    0.421447D+00
   0   220    0.738267-148    0.191648D-75    0.330337-144    0.421447D+00
   0   221    0.685632-149    0.454512D-76    0.233505-145    0.421447D+00
   0   222    0.628160-150    0.107324D-76    0.224292-146    0.421447D+00
   0   223    0.566262-151    0.252331D-77    0.250382-147    0.421447D+00
   0   224    0.513890-152    0.590702D-78    0.228195-148    0.421447D+00
   0   225    0.460763-153    0.137688D-78    0.184313-149    0.421447D+00
   0   226    0.408619-154    0.319568D-79    0.195059-150    0.421447D+00
   0   227    0.362756-155    0.738537D-80    0.135951-151    0.421447D+00
   0   228    0.314495-156    0.169954D-80    0.126418-152    0.421447D+00
   0   229    0.275539-157    0.389445D-81    0.120432-153    0.421447D+00
   0   230    0.243183-158    0.888632D-82    0.106024-154    0.421447D+00
   0   231    0.212634-159    0.201914D-82    0.885933-156    0.421447D+00
   0   232    0.184887-160    0.456860D-83    0.810803-157    0.421447D+00
   0   233    0.159423-161    0.102939D-83    0.741122-158    0.421447D+00
   0   234    0.137703-162    0.230973D-84    0.579329-159    0.421447D+00
   0   235    0.119047-163    0.516102D-85    0.456478-160    0.421447D+00
   0   236    0.996452-165    0.114843D-85    0.403697-161    0.421447D+00
   0   237    0.829843-166    0.254495D-86    0.374320-162    0.421447D+00
   0   238    0.688162-167    0.561645D-87    0.353233-163    0.421447D+00
   0   239    0.573887-168    0.123441D-87    0.267872-164    0.421447D+00
   0   240    0.483429-169    0.270194D-88    0.215071-165    0.421447D+00
   0   241    0.408517-170    0.589004D-89    0.177531-166    0.421447D+00
   0   242    0.334883-171    0.127877D-89    0.163185-167    0.421447D+00
   0   243    0.273863-172    0.276505D-90    0.135977-168    0.421447D+00
   0   244    0.220394-173    0.595466D-91    0.999277-170    0.421447D+00
   0   245    0.180118-174    0.127720D-91    0.888924-171    0.421447D+00
   0   246    0.146738-175    0.272844D-92    0.625248-172    0.421447D+00
   0   247    0.118810-176    0.580537D-93    0.576428-173    0.421447D+00
   0   248    0.947067-178    0.123030D-93    0.449501-174    0.421447D+00
   0   249    0.759636-179    0.259693D-94    0.350088-175    0.421447D+00
   0   250    0.598452-180    0.545991D-95    0.322686-176    0.421447D+00
   0   251    0.476084-181    0.114338D-95    0.245058-177    0.421447D+00
   0   252    0.383817-182    0.238498D-96    0.173717-178    0.421447D+00
   0   253    0.301366-183    0.495529D-97    0.136660-179    0.421447D+00
   0   254    0.234894-184    0.102553D-97    0.114849-180    0.421447D+00
   0   255    0.186676-185    0.211414D-98    0.981134-182    0.421447D+00
   0   256    0.147930-186    0.434135D-99    0.669255-183    0.421447D+00
   0   257    0.113270-187    0.888030-100    0.632470-184    0.421447D+00
   0   258    0.882366-189    0.180946-100    0.421619-185    0.421447D+00
   0   259    0.662604-190    0.367276-101    0.337664-186    0.421447D+00
   0   260    0.512891-191    0.742617-102    0.248011-187    0.421447D+00
   0   261    0.394280-192    0.149579-102    0.194144-188    0.421447D+00
   0   262    0.299452-193    0.300133-103    0.167726-189    0.421447D+00
   0   263    0.227723-194    0.599930-104    0.116965-190    0.421447D+00
   0   264    0.172125-195    0.119463-104    0.967081-192    0.421447D+00
   0   265    0.128405-196    0.236986-105    0.746957-193    0.421447D+00
   0   266    0.961793-198    0.468349-106    0.474880-194    0.421447D+00
   0   267    0.728880-199    0.922102-107    0.352660-195    0.421447D+00
   0   268    0.549145-200    0.180866-107    0.283578-196    0.421447D+00
   0   269    0.398690-201    0.353432-108    0.234864-197    0.421447D+00
   0   270    0.291824-202    0.688072-109    0.160496-198    0.421447D+00
   0   271    0.210411-203    0.133458-109    0.110008-199    0.421447D+00
   0   272    0.152441-204    0.257895-110    0.809319-201    0.421447D+00
   0   273    0.111803-205    0.496514-111    0.546500-202    0.421447D+00
   0   274    0.799181-207    0.952398-112    0.446605-203    0.421447D+00
   0   275    0.571745-208    0.182015-112    0.320330-204    0.421447D+00
   0   276    0.412779-209    0.346578-113    0.220872-205    0.421447D+00
   0   277    0.297763-210    0.657516-114    0.178096-206    0.421447D+00
   0   278    0.210852-211    0.124287-114    0.124988-207    0.421447D+00
   0   279    0.150601-212    0.234082-115    0.899001-209    0.421447D+00
   0   280    0.105513-213    0.439272-116    0.646899-210    0.421447D+00
   0   281    0.725867-215    0.821351-117    0.423071-211    0.421447D+00
   0   282    0.505697-216    0.153023-117    0.290259-212    0.421447D+00
   0   283    0.359881-217    0.284070-118    0.185237-213    0.421447D+00
   0   284    0.256657-218    0.525454-119    0.153145-214    0.421447D+00
   0   285    0.178653-219    0.968484-120    0.110332-215    0.421447D+00
   0   286    0.123948-220    0.177870-120    0.738454-217    0.421447D+00
   0   287    0.833844-222    0.325512-121    0.510555-218    0.421447D+00
   0   288    0.570698-223    0.593598-122    0.296738-219    0.421447D+00
   0   289    0.389487-224    0.107866-122    0.242515-220    0.421447D+00
   0   290    0.264576-225    0.195319-123    0.150735-221    0.421447D+00
   0   291    0.179194-226    0.352434-124    0.112223-222    0.421447D+00
   0   292    0.121181-227    0.633708-125    0.763829-224    0.421447D+00
   0   293    0.821296-229    0.113549-125    0.509502-225    0.421447D+00
   0   294    0.555321-230    0.202751-126    0.324494-226    0.421447D+00
   0   295    0.367542-231    0.360773-127    0.238653-227    0.421447D+00
   0   296    0.242085-232    0.639735-128    0.134758-228    0.421447D+00
   0   297    0.160673-233    0.113049-128    0.982188-230    0.421447D+00
   0   298    0.106498-234    0.199083-129    0.587656-231    0.421447D+00
   0   299    0.698425-236    0.349389-130    0.418792-232    0.421447D+00
   0   300    0.459328-237    0.611077-131    0.306585-233    0.421447D+00
   0   301    0.299755-238    0.106512-131    0.200708-234    0.421447D+00
   0   302    0.197841-239    0.185021-132    0.116502-235    0.421447D+00
   0   303    0.129768-240    0.320307-133    0.792992-237    0.421447D+00
   0   304    0.832111-242    0.552638-134    0.500154-238    0.421447D+00
   0   305    0.539224-243    0.950269-135    0.303414-239    0.421447D+00
   0   306    0.339477-244    0.162850-135    0.216498-240    0.421447D+00
   0   307    0.216256-245    0.278144-136    0.130283-241    0.421447D+00
   0   308    0.135644-246    0.473472-137    0.897793-243    0.421447D+00
   0   309    0.843544-248    0.803279-138    0.560383-244    0.421447D+00
   0   310    0.531412-249    0.135828-138    0.370289-245    0.421447D+00
   0   311    0.343306-250    0.228913-139    0.214866-246    0.421447D+00
   0   312    0.217883-251    0.384511-140    0.145018-247    0.421447D+00
   0   313    0.136457-252    0.643740-141    0.872689-249    0.421447D+00
   0   314    0.845681-254    0.107419-141    0.503534-250    0.421447D+00
   0   315    0.529151-255    0.178657-142    0.373190-251    0.421447D+00
   0   316    0.323973-256    0.296165-143    0.195853-252    0.421447D+00
   0   317    0.200271-257    0.489357-144    0.125243-253    0.421447D+00
   0   318    0.122615-258    0.805936-145    0.842519-255    0.421447D+00
   0   319    0.756338-260    0.132300-145    0.469613-256    0.421447D+00
   0   320    0.459998-261    0.216477-146    0.311866-257    0.421447D+00
   0   321    0.281528-262    0.353065-147    0.171666-258    0.421447D+00
   0   322    0.171715-263    0.573977-148    0.105059-259    0.421447D+00
   0   323    0.104334-264    0.930112-149    0.741145-261    0.421447D+00
   0   324    0.618404-266    0.150238-149    0.419755-262    0.421447D+00
   0   325    0.367110-267    0.241898-150    0.234559-263    0.421447D+00
   0   326    0.222344-268    0.388236-151    0.141553-264    0.421447D+00
   0   327    0.132865-269    0.621120-152    0.933664-266    0.421447D+00
   0   328    0.793555-271    0.990541-153    0.559438-267    0.421447D+00
   0   329    0.471517-272    0.157468-153    0.312086-268    0.421447D+00
   0   330    0.279588-273    0.249538-154    0.176006-269    0.421447D+00
   0   331    0.161393-274    0.394195-155    0.118633-270    0.421447D+00
   0   332    0.948185-276    0.620752-156    0.711397-272    0.421447D+00
   0   333    0.554842-277    0.974453-157    0.385745-273    0.421447D+00
   0   334    0.329644-278    0.152491-157    0.228309-274    0.421447D+00
   0   335    0.192155-279    0.237886-158    0.142146-275    0.421447D+00
   0   336    0.111300-280    0.369948-159    0.726142-277    0.421447D+00
   0   337    0.636159-282    0.573537-160    0.486620-278    0.421447D+00
   0   338    0.365490-283    0.886413-161    0.253490-279    0.421447D+00
   0   339    0.210457-284    0.136574-161    0.139540-280    0.421447D+00
   0   340    0.121187-285    0.209777-162    0.790914-282    0.421447D+00
   0   341    0.692281-287    0.321227-163    0.520699-283    0.421447D+00
   0   342    0.394671-288    0.490380-164    0.290935-284    0.421447D+00
   0   343    0.225812-289    0.746317-165    0.168052-285    0.421447D+00
   0   344    0.126784-290    0.113237-165    0.898170-287    0.421447D+00
   0   345    0.719621-292    0.171288-166    0.512255-288    0.421447D+00
   0   346    0.406519-293    0.258313-167    0.305264-289    0.421447D+00
   0   347    0.226613-294    0.388373-168    0.179701-290    0.421447D+00
   0   348    0.124314-295    0.582153-169    0.988138-292    0.421447D+00
   0   349    0.694145-297    0.869991-170    0.496758-293    0.421447D+00
   0   350    0.389332-298    0.129624-170    0.300183-294    0.421447D+00
   0   351    0.213518-299    0.192553-171    0.162329-295    0.421447D+00
   0   352    0.116374-300    0.285178-172    0.903471-297    0.421447D+00
   0   353    0.649372-302    0.421097-173    0.461227-298    0.421447D+00
   0   354    0.348031-303    0.619945-174    0.288494-299    0.421447D+00
   0   355    0.190454-304    0.909983-175    0.139509-300    0.421447D+00
   0   356    0.102823-305    0.133175-175    0.815421-302    0.421447D+00
   0   357    0.558831-307    0.194325-176    0.432931-303    0.421447D+00
   0   358    0.299661-308    0.282717-177    0.236546-304    0.421447D+00
   0   359    0.162500-309    0.410106-178    0.114540-305    0.421447D+00
   0   360    0.873380-311    0.593147-179    0.714645-307    0.421447D+00
   0   361    0.470502-312    0.855374-180    0.357427-308    0.421447D+00
   0   362    0.248902-313    0.122992-180    0.185044-309    0.421447D+00
   0   363    0.131705-314    0.176333-181    0.102764-310    0.421447D+00
   0   364    0.708149-316    0.252072-182    0.576023-312    0.421447D+00
   0   365    0.376365-317    0.359297-183    0.279493-313    0.421447D+00
   0   366    0.196455-318    0.510651-184    0.146985-314    0.421447D+00
   0   367    0.103507-319    0.723668-185    0.820149-316    0.421447D+00
   0   368    0.000000D+00    0.102259-185    0.000000D+00    0.421447D+00
   0   369    0.000000D+00    0.144083-186    0.000000D+00    0.421447D+00
   0   370    0.000000D+00    0.202432-187    0.000000D+00    0.421447D+00
   0   371    0.000000D+00    0.283597-188    0.000000D+00    0.421447D+00
   0   372    0.000000D+00    0.396170-189    0.000000D+00    0.421447D+00
   0   373    0.000000D+00    0.551853-190    0.000000D+00    0.421447D+00
   0   374    0.000000D+00    0.766531-191    0.000000D+00    0.421447D+00
   0   375    0.000000D+00    0.106170-191    0.000000D+00    0.421447D+00
   0   376    0.000000D+00    0.146638-192    0.000000D+00    0.421447D+00
   0   377    0.000000D+00    0.201959-193    0.000000D+00    0.421447D+00
   0   378    0.000000D+00    0.277368-194    0.000000D+00    0.421447D+00
   0   379    0.000000D+00    0.379863-195    0.000000D+00    0.421447D+00
   0   380    0.000000D+00    0.518775-196    0.000000D+00    0.421447D+00
   0   381    0.000000D+00    0.706505-197    0.000000D+00    0.421447D+00
   0   382    0.000000D+00    0.959485-198    0.000000D+00    0.421447D+00
   0   383    0.000000D+00    0.129942-198    0.000000D+00    0.421447D+00
   0   384    0.000000D+00    0.175491-199    0.000000D+00    0.421447D+00
   0   385    0.000000D+00    0.236349-200    0.000000D+00    0.421447D+00
   0   386    0.000000D+00    0.317432-201    0.000000D+00    0.421447D+00
   0   387    0.000000D+00    0.425155-202    0.000000D+00    0.421447D+00
   0   388    0.000000D+00    0.567868-203    0.000000D+00    0.421447D+00
   0   389    0.000000D+00    0.756403-204    0.000000D+00    0.421447D+00
   0   390    0.000000D+00    0.100477-204    0.000000D+00    0.421447D+00
   0   391    0.000000D+00    0.133104-205    0.000000D+00    0.421447D+00
   0   392    0.000000D+00    0.175844-206    0.000000D+00    0.421447D+00
   0   393    0.000000D+00    0.231676-207    0.000000D+00    0.421447D+00
   0   394    0.000000D+00    0.304407-208    0.000000D+00    0.421447D+00
   0   395    0.000000D+00    0.398885-209    0.000000D+00    0.421447D+00
   0   396    0.000000D+00    0.521272-210    0.000000D+00    0.421447D+00
   0   397    0.000000D+00    0.679369-211    0.000000D+00    0.421447D+00