variables =  "IG"  "JG"  "PHI"  "Temp."  "Latent_heat"  "mm"
ZONE  I=  401  J=  101
   0     0    0.100000D+01    0.880398D+00    0.000000D+00    0.250508D+00
   0     1    0.100000D+01    0.880398D+00    0.000000D+00    0.250508D+00
   0     2    0.100000D+01    0.880694D+00    0.000000D+00    0.250158D+00
   0     3    0.100000D+01    0.881286D+00    0.000000D+00    0.249456D+00
   0     4    0.100000D+01    0.882171D+00    0.000000D+00    0.248399D+00
   0     5    0.100000D+01    0.883347D+00    0.000000D+00    0.246981D+00
   0     6    0.100000D+01    0.884807D+00    0.000000D+00    0.245195D+00
   0     7    0.100000D+01    0.886548D+00    0.000000D+00    0.243033D+00
   0     8    0.100000D+01    0.888564D+00    0.000000D+00    0.240484D+00
   0     9    0.100000D+01    0.890846D+00    0.000000D+00    0.237534D+00
   0    10    0.100000D+01    0.893387D+00    0.000000D+00    0.234170D+00
   0    11    0.100000D+01    0.896178D+00    0.000000D+00    0.230375D+00
   0    12    0.100000D+01    0.899210D+00    0.000000D+00    0.226131D+00
   0    13    0.100000D+01    0.902473D+00    0.000000D+00    0.221417D+00
   0    14    0.100000D+01    0.905957D+00    0.000000D+00    0.216211D+00
   0    15    0.100000D+01    0.909652D+00    0.000000D+00    0.210489D+00
   0    16    0.100000D+01    0.913547D+00    0.000000D+00    0.204224D+00
   0    17    0.100000D+01    0.917633D+00    0.000000D+00    0.197388D+00
   0    18    0.100000D+01    0.921902D+00    0.000000D+00    0.189949D+00
   0    19    0.100000D+01    0.926344D+00   -0.133227D-10    0.181871D+00
   0    20    0.100000D+01    0.930954D+00    0.226485D-09    0.173119D+00
   0    21    0.100000D+01    0.935728D+00    0.786038D-09    0.163650D+00
   0    22    0.100000D+01    0.940664D+00   -0.968559D-08    0.153418D+00
   0    23    0.100000D+01    0.945763D+00    0.618572D-07    0.142372D+00
   0    24    0.100000D+01    0.951030D+00    0.308567D-06    0.130455D+00
   0    25    0.100000D+01    0.956476D+00   -0.353965D-05    0.117603D+00
   0    26    0.100000D+01    0.962115D+00    0.152954D-04    0.103747D+00
   0    27    0.999999D+00    0.967966D+00    0.143254D-03    0.888095D-01
   0    28    0.999996D+00    0.974061D+00    0.253775D-02    0.727035D-01
   0    29    0.999977D+00    0.980446D+00   -0.625258D-02    0.553163D-01
   0    30    0.999847D+00    0.987191D+00   -0.361146D-01    0.364903D-01
   0    31    0.998987D+00    0.994391D+00    0.452677D+00    0.160431D-01
   0    32    0.993904D+00    0.100211D+01   -0.142742D+00   -0.612244D-02
   0    33    0.962007D+00    0.100996D+01   -0.160842D+02   -0.284034D-01
   0    34    0.792896D+00    0.101591D+01   -0.166969D+02   -0.466386D-01
   0    35    0.246824D+00    0.102516D+01   -0.287886D+02   -0.713955D-01
   0    36    0.583416D-01    0.102369D+01    0.924532D+01   -0.678513D-01
   0    37    0.181146D-01    0.102071D+01   -0.278507D+01   -0.580089D-01
   0    38    0.950581D-02    0.101619D+01   -0.204182D+01   -0.463242D-01
   0    39    0.842943D-02    0.101225D+01    0.211064D+01   -0.345848D-01
   0    40    0.903019D-02    0.100979D+01    0.493251D+00   -0.278585D-01
   0    41    0.987837D-02    0.100789D+01   -0.889583D+00   -0.228996D-01
   0    42    0.101465D-01    0.100648D+01   -0.255859D+01   -0.189031D-01
   0    43    0.104881D-01    0.100649D+01   -0.326792D+01   -0.185224D-01
   0    44    0.108443D-01    0.100579D+01   -0.584043D+01   -0.164477D-01
   0    45    0.111450D-01    0.100511D+01    0.278275D+01   -0.148032D-01
   0    46    0.115393D-01    0.100423D+01   -0.714056D+01   -0.114823D-01
   0    47    0.117504D-01    0.100289D+01    0.304647D+00   -0.873440D-02
   0    48    0.118513D-01    0.100340D+01    0.173215D+01   -0.936498D-02
   0    49    0.117487D-01    0.100251D+01   -0.180918D+01   -0.664825D-02
   0    50    0.118388D-01    0.100284D+01   -0.335811D+00   -0.756804D-02
   0    51    0.122278D-01    0.100303D+01    0.411253D+01   -0.921413D-02
   0    52    0.119511D-01    0.100334D+01   -0.194686D+01   -0.948767D-02
   0    53    0.122522D-01    0.100280D+01    0.344380D-01   -0.767521D-02
   0    54    0.126750D-01    0.100144D+01   -0.745571D+01   -0.383804D-02
   0    55    0.128514D-01    0.100099D+01    0.619577D+01   -0.343324D-02
   0    56    0.129190D-01    0.100120D+01    0.116909D+01   -0.359908D-02
   0    57    0.131704D-01    0.100054D+01    0.720739D+01   -0.154796D-02
   0    58    0.128083D-01    0.999603D+00   -0.356742D+00    0.193389D-02
   0    59    0.133406D-01    0.998726D+00   -0.451999D+01    0.326671D-02
   0    60    0.132422D-01    0.999022D+00    0.798137D+01    0.272327D-02
   0    61    0.137877D-01    0.998601D+00   -0.518846D+01    0.362733D-02
   0    62    0.138894D-01    0.999093D+00    0.809723D+01    0.283549D-02
   0    63    0.138539D-01    0.998453D+00    0.116174D+00    0.394133D-02
   0    64    0.138400D-01    0.999404D+00   -0.943577D+00    0.113447D-02
   0    65    0.140763D-01    0.999530D+00    0.575859D+00    0.153511D-02
   0    66    0.142272D-01    0.998831D+00    0.522142D+01    0.281458D-02
   0    67    0.145884D-01    0.997537D+00    0.412630D+00    0.736255D-02
   0    68    0.143698D-01    0.997057D+00   -0.745371D+01    0.853846D-02
   0    69    0.141773D-01    0.997847D+00   -0.713370D+01    0.585723D-02
   0    70    0.142128D-01    0.997604D+00   -0.640816D+01    0.668240D-02
   0    71    0.145231D-01    0.997730D+00   -0.266664D+01    0.643128D-02
   0    72    0.147267D-01    0.998524D+00    0.436296D+01    0.406554D-02
   0    73    0.150967D-01    0.998024D+00   -0.944277D+01    0.588542D-02
   0    74    0.145061D-01    0.998019D+00   -0.839478D+01    0.598543D-02
   0    75    0.144029D-01    0.997865D+00    0.135059D+01    0.578904D-02
   0    76    0.146887D-01    0.997717D+00    0.304430D+01    0.714940D-02
   0    77    0.146694D-01    0.997741D+00    0.567045D+01    0.668434D-02
   0    78    0.141620D-01    0.998653D+00    0.809602D+01    0.408761D-02
   0    79    0.144494D-01    0.997625D+00   -0.171586D+01    0.632075D-02
   0    80    0.145569D-01    0.997364D+00   -0.467989D+01    0.821480D-02
   0    81    0.145458D-01    0.997319D+00    0.810356D+01    0.707833D-02
   0    82    0.148963D-01    0.997842D+00    0.354564D+01    0.635188D-02
   0    83    0.147933D-01    0.998640D+00   -0.442934D+01    0.385574D-02
   0    84    0.143786D-01    0.997565D+00   -0.616485D+01    0.673142D-02
   0    85    0.144970D-01    0.997024D+00   -0.351092D+01    0.856794D-02
   0    86    0.146012D-01    0.996749D+00   -0.631463D+01    0.952434D-02
   0    87    0.145083D-01    0.997717D+00    0.789596D+01    0.585423D-02
   0    88    0.143771D-01    0.997231D+00   -0.228280D+01    0.776019D-02
   0    89    0.143985D-01    0.998521D+00   -0.558251D+01    0.401479D-02
   0    90    0.146406D-01    0.998541D+00   -0.649755D+00    0.357297D-02
   0    91    0.147967D-01    0.997413D+00   -0.597261D+00    0.743313D-02
   0    92    0.147091D-01    0.997717D+00    0.464412D+01    0.593291D-02
   0    93    0.147110D-01    0.997611D+00    0.735086D+01    0.634158D-02
   0    94    0.146066D-01    0.997996D+00    0.586929D+01    0.552949D-02
   0    95    0.145748D-01    0.998548D+00    0.799241D+01    0.354751D-02
   0    96    0.143072D-01    0.998703D+00    0.748576D+01    0.362495D-02
   0    97    0.145083D-01    0.997261D+00    0.106863D+01    0.794412D-02
   0    98    0.143354D-01    0.998087D+00    0.734032D+01    0.612004D-02
   0    99    0.144492D-01    0.998071D+00    0.370865D+00    0.462899D-02
   0   100    0.147024D-01    0.998026D+00    0.272594D+01    0.581973D-02
   0   101    0.145224D-01    0.998406D+00   -0.244642D+01    0.501250D-02
   0   102    0.146066D-01    0.997787D+00   -0.403238D+01    0.643540D-02
   0   103    0.148640D-01    0.997883D+00   -0.304685D+01    0.620531D-02
   0   104    0.147279D-01    0.996994D+00   -0.153820D+01    0.830037D-02
   0   105    0.143165D-01    0.998411D+00   -0.310905D+01    0.427838D-02
   0   106    0.147333D-01    0.998754D+00    0.766136D+01    0.406186D-02
   0   107    0.144686D-01    0.997079D+00    0.121485D+01    0.779890D-02
   0   108    0.149223D-01    0.996771D+00    0.347360D+01    0.955346D-02
   0   109    0.145725D-01    0.996625D+00    0.285828D+01    0.102548D-01
   0   110    0.152748D-01    0.997676D+00    0.325778D+01    0.654108D-02
   0   111    0.150833D-01    0.997518D+00    0.735241D+01    0.781200D-02
   0   112    0.146932D-01    0.998387D+00   -0.457692D+01    0.489067D-02
   0   113    0.148694D-01    0.998364D+00    0.248364D+00    0.452635D-02
   0   114    0.145829D-01    0.997808D+00    0.596500D+01    0.644690D-02
   0   115    0.146057D-01    0.997313D+00    0.319975D+01    0.795609D-02
   0   116    0.147379D-01    0.998307D+00   -0.571925D+01    0.496040D-02
   0   117    0.146098D-01    0.996888D+00   -0.749381D+01    0.881195D-02
   0   118    0.149117D-01    0.997841D+00   -0.711028D+01    0.676616D-02
   0   119    0.147207D-01    0.996989D+00   -0.674664D+00    0.870136D-02
   0   120    0.151134D-01    0.997490D+00    0.667362D+01    0.652062D-02
   0   121    0.148632D-01    0.998259D+00    0.347029D+01    0.441618D-02
   0   122    0.147397D-01    0.998009D+00    0.516802D+01    0.635386D-02
   0   123    0.148494D-01    0.996470D+00    0.692954D+01    0.935551D-02
   0   124    0.150294D-01    0.997090D+00   -0.235034D+01    0.854966D-02
   0   125    0.148774D-01    0.997636D+00   -0.928361D+00    0.740599D-02
   0   126    0.148287D-01    0.997176D+00   -0.686124D+01    0.897222D-02
   0   127    0.146866D-01    0.998122D+00   -0.508128D+01    0.518260D-02
   0   128    0.145998D-01    0.997554D+00   -0.181978D+01    0.659909D-02
   0   129    0.147394D-01    0.997631D+00   -0.854853D+01    0.754900D-02
   0   130    0.142140D-01    0.998022D+00   -0.316904D+00    0.523986D-02
   0   131    0.144027D-01    0.997945D+00   -0.229014D+01    0.632033D-02
   0   132    0.145439D-01    0.998219D+00    0.326049D+01    0.552249D-02
   0   133    0.143131D-01    0.997382D+00    0.869664D+01    0.790721D-02
   0   134    0.143186D-01    0.996968D+00    0.878999D+01    0.820102D-02
   0   135    0.144561D-01    0.995899D+00   -0.489620D+01    0.114216D-01
   0   136    0.145991D-01    0.997079D+00    0.430819D+01    0.781193D-02
   0   137    0.146568D-01    0.997818D+00    0.321820D+01    0.672691D-02
   0   138    0.145898D-01    0.998400D+00   -0.104075D+01    0.444997D-02
   0   139    0.146209D-01    0.998503D+00    0.871322D+01    0.473271D-02
   0   140    0.144395D-01    0.998195D+00   -0.516115D+01    0.589912D-02
   0   141    0.145124D-01    0.998030D+00    0.776574D+01    0.539875D-02
   0   142    0.146013D-01    0.998271D+00    0.355955D+01    0.539947D-02
   0   143    0.146753D-01    0.998496D+00    0.239251D+01    0.426440D-02
   0   144    0.146863D-01    0.998816D+00   -0.654822D+01    0.343882D-02
   0   145    0.142963D-01    0.998591D+00   -0.815017D+01    0.454153D-02
   0   146    0.142151D-01    0.998764D+00   -0.664342D+01    0.324700D-02
   0   147    0.142778D-01    0.998772D+00   -0.516392D+01    0.291423D-02
   0   148    0.145380D-01    0.998223D+00   -0.491084D+01    0.529040D-02
   0   149    0.147270D-01    0.998176D+00   -0.324299D+01    0.516456D-02
   0   150    0.142583D-01    0.998191D+00   -0.384627D+00    0.471742D-02
   0   151    0.144940D-01    0.997929D+00    0.406025D+01    0.659557D-02
   0   152    0.143264D-01    0.997668D+00    0.703933D+01    0.693944D-02
   0   153    0.149351D-01    0.997259D+00   -0.185585D+01    0.802005D-02
   0   154    0.146163D-01    0.998496D+00    0.851170D+01    0.427461D-02
   0   155    0.147132D-01    0.998642D+00    0.777430D+01    0.329947D-02
   0   156    0.147104D-01    0.997660D+00   -0.310513D+00    0.590158D-02
   0   157    0.144904D-01    0.997304D+00   -0.304432D+01    0.811588D-02
   0   158    0.143632D-01    0.997279D+00    0.609565D+01    0.768402D-02
   0   159    0.148258D-01    0.997696D+00    0.845460D+01    0.683578D-02
   0   160    0.147407D-01    0.997970D+00   -0.205218D+01    0.541493D-02
   0   161    0.145737D-01    0.997782D+00   -0.472261D+01    0.642672D-02
   0   162    0.140409D-01    0.997462D+00   -0.220164D+01    0.670457D-02
   0   163    0.139600D-01    0.997229D+00   -0.133183D+01    0.871724D-02
   0   164    0.147152D-01    0.998200D+00   -0.113679D+01    0.486728D-02
   0   165    0.144689D-01    0.999049D+00   -0.470263D+00    0.338368D-02
   0   166    0.143891D-01    0.997937D+00   -0.337721D+01    0.583625D-02
   0   167    0.142634D-01    0.997978D+00    0.784326D+01    0.507149D-02
   0   168    0.140018D-01    0.997860D+00    0.375623D+01    0.666687D-02
   0   169    0.142233D-01    0.998070D+00   -0.408887D+01    0.621399D-02
   0   170    0.141331D-01    0.997924D+00   -0.188793D+01    0.608776D-02
   0   171    0.139416D-01    0.996586D+00   -0.720033D-01    0.981429D-02
   0   172    0.141871D-01    0.998047D+00    0.192690D+01    0.571552D-02
   0   173    0.147124D-01    0.998349D+00    0.425114D+01    0.535895D-02
   0   174    0.153570D-01    0.996487D+00   -0.114618D+02    0.971686D-02
   0   175    0.153365D-01    0.995337D+00    0.373020D+01    0.133240D-01
   0   176    0.149785D-01    0.994642D+00   -0.477356D+01    0.159596D-01
   0   177    0.157899D-01    0.993500D+00    0.358210D+01    0.181936D-01
   0   178    0.161972D-01    0.993579D+00   -0.737357D+01    0.178501D-01
   0   179    0.166740D-01    0.991274D+00   -0.686154D+01    0.247780D-01
   0   180    0.176825D-01    0.988035D+00   -0.375235D+01    0.342243D-01
   0   181    0.189345D-01    0.982688D+00   -0.995634D+01    0.495811D-01
   0   182    0.211629D-01    0.975596D+00   -0.134693D+02    0.685520D-01
   0   183    0.243125D-01    0.962730D+00   -0.892404D+01    0.102871D+00
   0   184    0.268187D-01    0.941157D+00   -0.161006D+02    0.152713D+00
   0   185    0.284330D-01    0.904508D+00   -0.161849D+02    0.218269D+00
   0   186    0.250802D-01    0.850838D+00   -0.462500D+01    0.280946D+00
   0   187    0.177934D-01    0.774024D+00   -0.146015D+01    0.330844D+00
   0   188    0.979486D-02    0.675779D+00    0.990688D+01    0.364424D+00
   0   189    0.447238D-02    0.565952D+00    0.244307D+01    0.385208D+00
   0   190    0.179430D-02    0.456919D+00    0.127242D+00    0.397884D+00
   0   191    0.696376D-03    0.357448D+00    0.303600D+00    0.405802D+00
   0   192    0.246754D-03    0.272227D+00    0.680232D-01    0.410902D+00
   0   193    0.855337D-04    0.202601D+00    0.236770D-01    0.414274D+00
   0   194    0.285357D-04    0.147791D+00    0.226166D-01    0.416546D+00
   0   195    0.943559D-05    0.105940D+00    0.135372D-02    0.418097D+00
   0   196    0.298621D-05    0.747876D-01    0.105041D-02    0.419161D+00
   0   197    0.913058D-06    0.520931D-01    0.434809D-03    0.419892D+00
   0   198    0.274857D-06    0.358619D-01    0.133364D-03    0.420394D+00
   0   199    0.837263D-07    0.244356D-01    0.497366D-04    0.420738D+00
   0   200    0.243961D-07    0.165009D-01    0.271282D-04    0.420972D+00
   0   201    0.696481D-08    0.110554D-01    0.804573D-05    0.421131D+00
   0   202    0.198444D-08    0.735628D-02    0.130686D-05    0.421237D+00
   0   203    0.579689D-09    0.486557D-02    0.206477D-06    0.421309D+00
   0   204    0.176089D-09    0.320135D-02    0.729464D-07    0.421356D+00
   0   205    0.554354D-10    0.209674D-02    0.113632D-07    0.421388D+00
   0   206    0.166627D-10    0.136779D-02    0.136896D-07    0.421408D+00
   0   207    0.519988D-11    0.889150D-03    0.649888D-09    0.421422D+00
   0   208    0.160086D-11    0.576240D-03    0.150678D-08    0.421431D+00
   0   209    0.469194D-12    0.372452D-03    0.474730D-09    0.421436D+00
   0   210    0.134770D-12    0.240171D-03    0.351267D-10    0.421440D+00
   0   211    0.387718D-13    0.154553D-03    0.193981D-10    0.421443D+00
   0   212    0.106458D-13    0.992782D-04    0.552954D-11    0.421444D+00
   0   213    0.291808D-14    0.636711D-04    0.294734D-11    0.421445D+00
   0   214    0.811259D-15    0.407780D-04    0.666859D-12    0.421446D+00
   0   215    0.223261D-15    0.260842D-04    0.101216D-12    0.421446D+00
   0   216    0.628284D-16    0.166671D-04    0.680752D-13    0.421447D+00
   0   217    0.167748D-16    0.106396D-04    0.126949D-13    0.421447D+00
   0   218    0.446849D-17    0.678620D-05    0.335244D-14    0.421447D+00
   0   219    0.120419D-17    0.432514D-05    0.693607D-15    0.421447D+00
   0   220    0.323859D-18    0.275476D-05    0.133232D-15    0.421447D+00
   0   221    0.839512D-19    0.175351D-05    0.479696D-16    0.421447D+00
   0   222    0.215398D-19    0.111559D-05    0.278884D-16    0.421447D+00
   0   223    0.555858D-20    0.709399D-06    0.406192D-17    0.421447D+00
   0   224    0.143653D-20    0.450912D-06    0.836786D-18    0.421447D+00
   0   225    0.361813D-21    0.286501D-06    0.405611D-18    0.421447D+00
   0   226    0.906066D-22    0.181973D-06    0.117259D-18    0.421447D+00
   0   227    0.238004D-22    0.115546D-06    0.171389D-19    0.421447D+00
   0   228    0.602987D-23    0.733459D-07    0.808345D-20    0.421447D+00
   0   229    0.151493D-23    0.465463D-07    0.387743D-21    0.421447D+00
   0   230    0.391231D-24    0.295320D-07    0.410568D-21    0.421447D+00
   0   231    0.955769D-25    0.187330D-07    0.830901D-22    0.421447D+00
   0   232    0.242781D-25    0.118805D-07    0.191844D-22    0.421447D+00
   0   233    0.609296D-26    0.753335D-08    0.645718D-23    0.421447D+00
   0   234    0.147193D-26    0.477605D-08    0.115692D-23    0.421447D+00
   0   235    0.365863D-27    0.302751D-08    0.241690D-24    0.421447D+00
   0   236    0.856034D-28    0.191886D-08    0.626766D-25    0.421447D+00
   0   237    0.203338D-28    0.121604D-08    0.310093D-25    0.421447D+00
   0   238    0.509814D-29    0.770552D-09    0.335047D-26    0.421447D+00
   0   239    0.126915D-29    0.488216D-09    0.792098D-27    0.421447D+00
   0   240    0.314142D-30    0.309301D-09    0.340634D-27    0.421447D+00
   0   241    0.772180D-31    0.195935D-09    0.890764D-28    0.421447D+00
   0   242    0.183524D-31    0.124111D-09    0.828891D-29    0.421447D+00
   0   243    0.448756D-32    0.786103D-10    0.617598D-29    0.421447D+00
   0   244    0.111562D-32    0.497874D-10    0.129577D-29    0.421447D+00
   0   245    0.272251D-33    0.315308D-10    0.204260D-30    0.421447D+00
   0   246    0.641534D-34    0.199677D-10    0.730159D-31    0.421447D+00
   0   247    0.158160D-34    0.126445D-10    0.144315D-31    0.421447D+00
   0   248    0.383238D-35    0.800674D-11    0.492506D-32    0.421447D+00
   0   249    0.917591D-36    0.506984D-11    0.658170D-33    0.421447D+00
   0   250    0.224003D-36    0.321010D-11    0.272426D-33    0.421447D+00
   0   251    0.544727D-37    0.203249D-11    0.752263D-34    0.421447D+00
   0   252    0.130227D-37    0.128685D-11    0.502539D-35    0.421447D+00
   0   253    0.311486D-38    0.814733D-12    0.381831D-35    0.421447D+00
   0   254    0.751580D-39    0.515815D-12    0.755213D-36    0.421447D+00
   0   255    0.179945D-39    0.326560D-12    0.618489D-37    0.421447D+00
   0   256    0.439916D-40    0.206740D-12    0.247967D-37    0.421447D+00
   0   257    0.104865D-40    0.130881D-12    0.137758D-37    0.421447D+00
   0   258    0.248286D-41    0.828560D-13    0.319428D-38    0.421447D+00
   0   259    0.583905D-42    0.524521D-13    0.591613D-39    0.421447D+00
   0   260    0.140653D-42    0.332044D-13    0.806785D-40    0.421447D+00
   0   261    0.342747D-43    0.210194D-13    0.154010D-40    0.421447D+00
   0   262    0.819876D-44    0.133058D-13    0.409610D-41    0.421447D+00
   0   263    0.190919D-44    0.842271D-14    0.849919D-42    0.421447D+00
   0   264    0.455331D-45    0.533160D-14    0.411724D-42    0.421447D+00
   0   265    0.106994D-45    0.337486D-14    0.128069D-42    0.421447D+00
   0   266    0.257875D-46    0.213623D-14    0.375846D-43    0.421447D+00
   0   267    0.631527D-47    0.135217D-14    0.339624D-44    0.421447D+00
   0   268    0.152978D-47    0.855870D-15    0.138433D-44    0.421447D+00
   0   269    0.361780D-48    0.541722D-15    0.161028D-45    0.421447D+00
   0   270    0.837307D-49    0.342876D-15    0.352091D-46    0.421447D+00
   0   271    0.203011D-49    0.217014D-15    0.170934D-46    0.421447D+00
   0   272    0.466858D-50    0.137351D-15    0.620694D-47    0.421447D+00
   0   273    0.112170D-50    0.869293D-16    0.137632D-47    0.421447D+00
   0   274    0.268761D-51    0.550163D-16    0.713603D-49    0.421447D+00
   0   275    0.618010D-52    0.348183D-16    0.308941D-49    0.421447D+00
   0   276    0.144790D-52    0.220350D-16    0.934979D-50    0.421447D+00
   0   277    0.360754D-53    0.139447D-16    0.415175D-50    0.421447D+00
   0   278    0.859941D-54    0.882462D-17    0.117542D-50    0.421447D+00
   0   279    0.201529D-54    0.558435D-17    0.246578D-51    0.421447D+00
   0   280    0.500977D-55    0.353377D-17    0.613383D-52    0.421447D+00
   0   281    0.118079D-55    0.223611D-17    0.645888D-53    0.421447D+00
   0   282    0.282296D-56    0.141494D-17    0.185469D-53    0.421447D+00
   0   283    0.670670D-57    0.895310D-18    0.513076D-54    0.421447D+00
   0   284    0.161957D-57    0.566497D-18    0.491195D-55    0.421447D+00
   0   285    0.386665D-58    0.358435D-18    0.308588D-55    0.421447D+00
   0   286    0.880472D-59    0.226784D-18    0.122738D-55    0.421447D+00
   0   287    0.205765D-59    0.143485D-18    0.220003D-56    0.421447D+00
   0   288    0.481961D-60    0.907792D-19    0.179785D-57    0.421447D+00
   0   289    0.114313D-60    0.574324D-19    0.938234D-58    0.421447D+00
   0   290    0.269691D-61    0.363344D-19    0.153938D-58    0.421447D+00
   0   291    0.626493D-62    0.229862D-19    0.822007D-59    0.421447D+00
   0   292    0.148033D-62    0.145414D-19    0.621869D-60    0.421447D+00
   0   293    0.351815D-63    0.919890D-20    0.303049D-60    0.421447D+00
   0   294    0.817752D-64    0.581909D-20    0.510876D-61    0.421447D+00
   0   295    0.193077D-64    0.368098D-20    0.637622D-62    0.421447D+00
   0   296    0.456146D-65    0.232842D-20    0.573180D-62    0.421447D+00
   0   297    0.112138D-65    0.147282D-20    0.892099D-63    0.421447D+00
   0   298    0.261348D-66    0.931598D-21    0.284473D-63    0.421447D+00
   0   299    0.638629D-67    0.589246D-21    0.420762D-64    0.421447D+00
   0   300    0.154155D-67    0.372696D-21    0.177501D-64    0.421447D+00
   0   301    0.360968D-68    0.235723D-21    0.517507D-65    0.421447D+00
   0   302    0.862360D-69    0.149087D-21    0.721831D-66    0.421447D+00
   0   303    0.206376D-69    0.942903D-22    0.207534D-66    0.421447D+00
   0   304    0.490510D-70    0.596325D-22    0.136214D-67    0.421447D+00
   0   305    0.116764D-70    0.377128D-22    0.141354D-67    0.421447D+00
   0   306    0.275749D-71    0.238497D-22    0.346020D-68    0.421447D+00
   0   307    0.656785D-72    0.150822D-22    0.444052D-69    0.421447D+00
   0   308    0.157699D-72    0.953754D-23    0.989921D-70    0.421447D+00
   0   309    0.359854D-73    0.603108D-23    0.528910D-70    0.421447D+00
   0   310    0.840628D-74    0.381364D-23    0.933311D-71    0.421447D+00
   0   311    0.197228D-74    0.241141D-23    0.108529D-71    0.421447D+00
   0   312    0.452747D-75    0.152471D-23    0.474930D-72    0.421447D+00
   0   313    0.107487D-75    0.964028D-24    0.375403D-73    0.421447D+00
   0   314    0.250821D-76    0.609501D-24    0.165828D-73    0.421447D+00
   0   315    0.599125D-77    0.385338D-24    0.590800D-74    0.421447D+00
   0   316    0.144479D-77    0.243607D-24    0.160181D-74    0.421447D+00
   0   317    0.342226D-78    0.153999D-24    0.191184D-75    0.421447D+00
   0   318    0.815332D-79    0.973476D-25    0.115495D-75    0.421447D+00
   0   319    0.191651D-79    0.615330D-25    0.251067D-76    0.421447D+00
   0   320    0.437577D-80    0.388925D-25    0.287428D-77    0.421447D+00
   0   321    0.105215D-80    0.245809D-25    0.275709D-78    0.421447D+00
   0   322    0.252767D-81    0.155346D-25    0.122500D-78    0.421447D+00
   0   323    0.598499D-82    0.981678D-26    0.814920D-79    0.421447D+00
   0   324    0.135951D-82    0.620305D-26    0.104590D-79    0.421447D+00
   0   325    0.311814D-83    0.391927D-26    0.477219D-80    0.421447D+00
   0   326    0.758860D-84    0.247609D-26    0.705512D-81    0.421447D+00
   0   327    0.178471D-84    0.156417D-26    0.915867D-82    0.421447D+00
   0   328    0.425234D-85    0.988000D-27    0.531763D-82    0.421447D+00
   0   329    0.993688D-86    0.623995D-27    0.145311D-82    0.421447D+00
   0   330    0.238335D-86    0.394052D-27    0.178265D-83    0.421447D+00
   0   331    0.552935D-87    0.248811D-27    0.791869D-84    0.421447D+00
   0   332    0.133305D-87    0.157082D-27    0.183024D-84    0.421447D+00
   0   333    0.314463D-88    0.991563D-28    0.336043D-85    0.421447D+00
   0   334    0.725278D-89    0.625815D-28    0.108316D-85    0.421447D+00
   0   335    0.171271D-89    0.394911D-28    0.160297D-86    0.421447D+00
   0   336    0.404673D-90    0.249159D-28    0.449806D-87    0.421447D+00
   0   337    0.922955D-91    0.157171D-28    0.814266D-88    0.421447D+00
   0   338    0.219578D-91    0.991244D-29    0.284751D-88    0.421447D+00
   0   339    0.512342D-92    0.625027D-29    0.567463D-89    0.421447D+00
   0   340    0.118195D-92    0.394022D-29    0.112173D-89    0.421447D+00
   0   341    0.285716D-93    0.248337D-29    0.240206D-90    0.421447D+00
   0   342    0.672571D-94    0.156479D-29    0.940193D-91    0.421447D+00
   0   343    0.161221D-94    0.985725D-30    0.112173D-91    0.421447D+00
   0   344    0.369336D-95    0.620782D-30    0.162642D-92    0.421447D+00
   0   345    0.860295D-96    0.390839D-30    0.702984D-93    0.421447D+00
   0   346    0.205659D-96    0.245996D-30    0.279574D-93    0.421447D+00
   0   347    0.481054D-97    0.154783D-30    0.228808D-94    0.421447D+00
   0   348    0.114047D-97    0.973588D-31    0.105953D-94    0.421447D+00
   0   349    0.269951D-98    0.612182D-31    0.308703D-95    0.421447D+00
   0   350    0.644648D-99    0.384797D-31    0.735297D-96    0.421447D+00
   0   351    0.150771D-99    0.241781D-31    0.161362D-96    0.421447D+00
   0   352    0.351197-100    0.151862D-31    0.447427D-97    0.421447D+00
   0   353    0.812621-101    0.953457D-32    0.665665D-98    0.421447D+00
   0   354    0.191526-101    0.598377D-32    0.154714D-98    0.421447D+00
   0   355    0.472144-102    0.375374D-32    0.573609D-99    0.421447D+00
   0   356    0.112952-102    0.235376D-32    0.113710D-99    0.421447D+00
   0   357    0.270030-103    0.147524D-32    0.769853-101    0.421447D+00
   0   358    0.636857-104    0.924184D-33    0.302428-101    0.421447D+00
   0   359    0.149994-104    0.578688D-33    0.212608-101    0.421447D+00
   0   360    0.344063-105    0.362172D-33    0.162123-102    0.421447D+00
   0   361    0.815269-106    0.226549D-33    0.794765-103    0.421447D+00
   0   362    0.187494-106    0.141638D-33    0.211557-103    0.421447D+00
   0   363    0.440413-107    0.885042D-34    0.328970-104    0.421447D+00
   0   364    0.103453-107    0.552722D-34    0.146631-104    0.421447D+00
   0   365    0.236899-108    0.344987D-34    0.152881-105    0.421447D+00
   0   366    0.571335-109    0.215202D-34    0.464795-106    0.421447D+00
   0   367    0.135495-109    0.134162D-34    0.821555-107    0.421447D+00
   0   368    0.318966-110    0.835894D-35    0.312606-107    0.421447D+00
   0   369    0.747802-111    0.520477D-35    0.100214-107    0.421447D+00
   0   370    0.171078-111    0.323874D-35    0.242834-108    0.421447D+00
   0   371    0.404508-112    0.201405D-35    0.402658-109    0.421447D+00
   0   372    0.923316-113    0.125164D-35    0.129567-109    0.421447D+00
   0   373    0.212249-113    0.777309D-36    0.183902-110    0.421447D+00
   0   374    0.503412-114    0.482406D-36    0.196358-111    0.421447D+00
   0   375    0.122945-114    0.299178D-36    0.239448-112    0.421447D+00
   0   376    0.279653-115    0.185413D-36    0.169525-112    0.421447D+00
   0   377    0.646860-116    0.114825D-36    0.461022-113    0.421447D+00
   0   378    0.158569-116    0.710589D-37    0.177210-113    0.421447D+00
   0   379    0.372310-117    0.439419D-37    0.221110-114    0.421447D+00
   0   380    0.854641-118    0.271527D-37    0.836085-115    0.421447D+00
   0   381    0.199821-118    0.167655D-37    0.182055-115    0.421447D+00
   0   382    0.495546-119    0.103440D-37    0.163702-116    0.421447D+00
   0   383    0.117916-119    0.637702D-38    0.681953-117    0.421447D+00
   0   384    0.279579-120    0.392831D-38    0.271531-117    0.421447D+00
   0   385    0.652897-121    0.241794D-38    0.589161-118    0.421447D+00
   0   386    0.155442-121    0.148708D-38    0.192946-118    0.421447D+00
   0   387    0.367006-122    0.913840D-39    0.182281-119    0.421447D+00
   0   388    0.854913-123    0.561107D-39    0.518221-120    0.421447D+00
   0   389    0.195015-123    0.344236D-39    0.233720-120    0.421447D+00
   0   390    0.469351-124    0.211005D-39    0.623830-121    0.421447D+00
   0   391    0.112440-124    0.129223D-39    0.861161-122    0.421447D+00
   0   392    0.265481-125    0.790595D-40    0.199510-122    0.421447D+00
   0   393    0.626416-126    0.483096D-40    0.819175-123    0.421447D+00
   0   394    0.143675-126    0.294644D-40    0.182212-123    0.421447D+00
   0   395    0.337243-127    0.179057D-40    0.316291-124    0.421447D+00
   0   396    0.809303-128    0.107905D-40    0.100850-124    0.421447D+00
   0   397    0.190758-128    0.636208D-41    0.259627-125    0.421447D+00