variables =  "IG"  "JG"  "PHI"  "Temp."  "Latent_heat"  "mm"
ZONE  I=  401  J=  101
   0     0    0.100000D+01    0.907195D+00    0.000000D+00    0.214318D+00
   0     1    0.100000D+01    0.907195D+00    0.000000D+00    0.214318D+00
   0     2    0.100000D+01    0.907387D+00    0.000000D+00    0.214022D+00
   0     3    0.100000D+01    0.907770D+00    0.000000D+00    0.213429D+00
   0     4    0.100000D+01    0.908345D+00    0.000000D+00    0.212537D+00
   0     5    0.100000D+01    0.909108D+00    0.000000D+00    0.211344D+00
   0     6    0.100000D+01    0.910059D+00    0.000000D+00    0.209846D+00
   0     7    0.100000D+01    0.911194D+00    0.000000D+00    0.208038D+00
   0     8    0.100000D+01    0.912510D+00    0.000000D+00    0.205915D+00
   0     9    0.100000D+01    0.914005D+00    0.000000D+00    0.203472D+00
   0    10    0.100000D+01    0.915675D+00    0.000000D+00    0.200700D+00
   0    11    0.100000D+01    0.917514D+00    0.000000D+00    0.197591D+00
   0    12    0.100000D+01    0.919520D+00    0.000000D+00    0.194138D+00
   0    13    0.100000D+01    0.921687D+00    0.000000D+00    0.190331D+00
   0    14    0.100000D+01    0.924010D+00    0.000000D+00    0.186159D+00
   0    15    0.100000D+01    0.926484D+00    0.000000D+00    0.181612D+00
   0    16    0.100000D+01    0.929104D+00    0.000000D+00    0.176678D+00
   0    17    0.100000D+01    0.931865D+00    0.000000D+00    0.171345D+00
   0    18    0.100000D+01    0.934762D+00    0.000000D+00    0.165599D+00
   0    19    0.100000D+01    0.937791D+00    0.000000D+00    0.159428D+00
   0    20    0.100000D+01    0.940948D+00    0.000000D+00    0.152815D+00
   0    21    0.100000D+01    0.944230D+00   -0.133227D-10    0.145744D+00
   0    22    0.100000D+01    0.947634D+00   -0.399680D-10    0.138197D+00
   0    23    0.100000D+01    0.951162D+00    0.679456D-09    0.130151D+00
   0    24    0.100000D+01    0.954814D+00    0.516920D-08    0.121582D+00
   0    25    0.100000D+01    0.958596D+00   -0.194644D-07    0.112458D+00
   0    26    0.100000D+01    0.962515D+00   -0.153970D-06    0.102743D+00
   0    27    0.100000D+01    0.966584D+00   -0.168305D-06    0.923895D-01
   0    28    0.100000D+01    0.970818D+00   -0.663373D-05    0.813431D-01
   0    29    0.100000D+01    0.975239D+00   -0.646506D-04    0.695354D-01
   0    30    0.999999D+00    0.979879D+00    0.234641D-03    0.568823D-01
   0    31    0.999995D+00    0.984776D+00    0.137189D-02    0.432794D-01
   0    32    0.999967D+00    0.989984D+00   -0.821136D-02    0.285942D-01
   0    33    0.999794D+00    0.995582D+00    0.267498D-01    0.126425D-01
   0    34    0.998742D+00    0.100171D+01    0.527918D+00   -0.490260D-02
   0    35    0.992377D+00    0.100872D+01   -0.182634D+01   -0.248324D-01
   0    36    0.956281D+00    0.101670D+01   -0.674226D+00   -0.478300D-01
   0    37    0.760903D+00    0.102529D+01    0.102753D+03   -0.709050D-01
   0    38    0.216302D+00    0.102847D+01   -0.478305D+02   -0.795037D-01
   0    39    0.506281D-01    0.102513D+01   -0.203605D+02   -0.703431D-01
   0    40    0.165273D-01    0.102187D+01   -0.953419D+01   -0.622432D-01
   0    41    0.929308D-02    0.101763D+01   -0.942721D+00   -0.502400D-01
   0    42    0.866037D-02    0.101327D+01   -0.521834D+01   -0.373454D-01
   0    43    0.941521D-02    0.100990D+01    0.485609D+01   -0.283024D-01
   0    44    0.102271D-01    0.100786D+01   -0.281621D+01   -0.230428D-01
   0    45    0.102895D-01    0.100620D+01   -0.535495D+01   -0.176373D-01
   0    46    0.108271D-01    0.100494D+01   -0.700711D+01   -0.141864D-01
   0    47    0.111446D-01    0.100504D+01   -0.415653D+01   -0.147579D-01
   0    48    0.111335D-01    0.100437D+01   -0.399509D+01   -0.128281D-01
   0    49    0.116330D-01    0.100420D+01   -0.550083D+01   -0.120238D-01
   0    50    0.118095D-01    0.100276D+01   -0.638659D+01   -0.819500D-02
   0    51    0.120546D-01    0.100251D+01    0.117802D+01   -0.743419D-02
   0    52    0.120480D-01    0.100281D+01   -0.207446D+01   -0.799103D-02
   0    53    0.123819D-01    0.100242D+01   -0.171150D+01   -0.627889D-02
   0    54    0.129214D-01    0.100170D+01    0.529047D+01   -0.536891D-02
   0    55    0.127909D-01    0.100235D+01   -0.576889D+01   -0.649852D-02
   0    56    0.131167D-01    0.100111D+01   -0.707055D+01   -0.334244D-02
   0    57    0.126557D-01    0.100092D+01    0.747879D+01   -0.233071D-02
   0    58    0.130171D-01    0.100047D+01    0.190108D+01   -0.131885D-02
   0    59    0.129859D-01    0.100061D+01   -0.755937D+01   -0.222500D-02
   0    60    0.129488D-01    0.100092D+01    0.444734D+01   -0.236209D-02
   0    61    0.130735D-01    0.100028D+01   -0.538898D+01   -0.582740D-03
   0    62    0.136011D-01    0.998944D+00   -0.330185D+01    0.278050D-02
   0    63    0.137728D-01    0.998670D+00    0.566068D+00    0.391665D-02
   0    64    0.140019D-01    0.999423D+00   -0.253960D+01    0.131999D-02
   0    65    0.141784D-01    0.998548D+00    0.510359D+01    0.410980D-02
   0    66    0.140233D-01    0.998138D+00    0.637870D+01    0.489615D-02
   0    67    0.145241D-01    0.998127D+00   -0.424192D+01    0.513305D-02
   0    68    0.141945D-01    0.998062D+00   -0.268817D+01    0.582823D-02
   0    69    0.138935D-01    0.997169D+00    0.368528D+01    0.736631D-02
   0    70    0.144157D-01    0.997422D+00   -0.709150D+00    0.781302D-02
   0    71    0.143020D-01    0.997183D+00   -0.724825D+01    0.844640D-02
   0    72    0.141867D-01    0.997096D+00    0.675774D+01    0.775506D-02
   0    73    0.145819D-01    0.997866D+00   -0.672930D+01    0.644741D-02
   0    74    0.144984D-01    0.997743D+00    0.481780D+01    0.577454D-02
   0    75    0.148653D-01    0.998635D+00    0.274258D+00    0.439554D-02
   0    76    0.146778D-01    0.997980D+00   -0.146454D+01    0.620058D-02
   0    77    0.149089D-01    0.997840D+00   -0.217407D+01    0.565235D-02
   0    78    0.149484D-01    0.997247D+00    0.364772D+01    0.810939D-02
   0    79    0.149775D-01    0.997500D+00    0.495152D+00    0.768218D-02
   0    80    0.149306D-01    0.997663D+00   -0.395093D+01    0.667565D-02
   0    81    0.153015D-01    0.997349D+00    0.241757D+01    0.712976D-02
   0    82    0.153068D-01    0.996897D+00    0.779542D+01    0.828601D-02
   0    83    0.150542D-01    0.996705D+00    0.274418D+01    0.102177D-01
   0    84    0.148358D-01    0.995918D+00   -0.650244D+01    0.110202D-01
   0    85    0.146182D-01    0.996779D+00    0.678025D+01    0.998229D-02
   0    86    0.146636D-01    0.997446D+00    0.332997D+00    0.729937D-02
   0    87    0.147501D-01    0.997588D+00    0.754421D+01    0.667680D-02
   0    88    0.153195D-01    0.997404D+00    0.409675D+01    0.769294D-02
   0    89    0.151889D-01    0.997452D+00    0.130704D+01    0.765993D-02
   0    90    0.154758D-01    0.997905D+00    0.152799D+01    0.614985D-02
   0    91    0.149797D-01    0.997557D+00    0.458602D+01    0.707196D-02
   0    92    0.152969D-01    0.997186D+00    0.942149D+00    0.883672D-02
   0    93    0.148067D-01    0.996636D+00    0.879838D+01    0.933283D-02
   0    94    0.148892D-01    0.995745D+00   -0.377510D+01    0.122865D-01
   0    95    0.148910D-01    0.996555D+00    0.434717D+01    0.104394D-01
   0    96    0.150064D-01    0.996177D+00   -0.510281D+01    0.116764D-01
   0    97    0.155114D-01    0.997088D+00    0.181130D+01    0.882342D-02
   0    98    0.148460D-01    0.997436D+00    0.777512D+01    0.681738D-02
   0    99    0.149698D-01    0.997524D+00    0.725569D+01    0.779082D-02
   0   100    0.154183D-01    0.996440D+00   -0.173592D+01    0.102773D-01
   0   101    0.154077D-01    0.997556D+00   -0.536354D+01    0.634911D-02
   0   102    0.150123D-01    0.998857D+00   -0.413376D+01    0.330651D-02
   0   103    0.148994D-01    0.997989D+00    0.303442D+01    0.600150D-02
   0   104    0.153176D-01    0.996659D+00    0.674509D+01    0.966428D-02
   0   105    0.155919D-01    0.995916D+00    0.657793D+01    0.116779D-01
   0   106    0.149169D-01    0.996520D+00   -0.146437D+01    0.986882D-02
   0   107    0.153424D-01    0.995886D+00    0.557457D+01    0.118414D-01
   0   108    0.151658D-01    0.996247D+00   -0.201717D+01    0.104463D-01
   0   109    0.152088D-01    0.997046D+00   -0.894052D+01    0.898285D-02
   0   110    0.153764D-01    0.996667D+00   -0.242027D+00    0.101406D-01
   0   111    0.151555D-01    0.996559D+00   -0.251207D-02    0.964090D-02
   0   112    0.153591D-01    0.997050D+00    0.494983D+01    0.900774D-02
   0   113    0.150029D-01    0.996768D+00    0.299992D+01    0.987239D-02
   0   114    0.153842D-01    0.995246D+00   -0.736009D+01    0.133580D-01
   0   115    0.151460D-01    0.996166D+00   -0.479218D+01    0.113713D-01
   0   116    0.153982D-01    0.996835D+00    0.756937D+01    0.919838D-02
   0   117    0.153651D-01    0.996335D+00   -0.702245D+01    0.101057D-01
   0   118    0.153152D-01    0.997166D+00    0.865221D+01    0.774685D-02
   0   119    0.147853D-01    0.996773D+00    0.551122D+00    0.996095D-02
   0   120    0.151458D-01    0.995588D+00    0.502651D+00    0.126064D-01
   0   121    0.151518D-01    0.995950D+00    0.688687D+01    0.119424D-01
   0   122    0.154901D-01    0.995719D+00   -0.112777D+01    0.123649D-01
   0   123    0.153980D-01    0.995650D+00   -0.119556D+01    0.128844D-01
   0   124    0.151077D-01    0.996094D+00   -0.851227D+00    0.106840D-01
   0   125    0.151678D-01    0.995648D+00    0.613261D+01    0.132166D-01
   0   126    0.150158D-01    0.994996D+00    0.420285D+01    0.143449D-01
   0   127    0.150645D-01    0.996969D+00   -0.444202D+01    0.890174D-02
   0   128    0.147592D-01    0.996633D+00   -0.175298D+01    0.945637D-02
   0   129    0.151585D-01    0.998484D+00   -0.717823D+01    0.425901D-02
   0   130    0.154944D-01    0.997806D+00   -0.171998D+01    0.573621D-02
   0   131    0.152127D-01    0.997223D+00    0.107786D+01    0.725807D-02
   0   132    0.151713D-01    0.997189D+00    0.727055D+01    0.866298D-02
   0   133    0.147133D-01    0.998288D+00   -0.266798D+01    0.458793D-02
   0   134    0.150391D-01    0.997617D+00    0.502589D+01    0.645468D-02
   0   135    0.151117D-01    0.997071D+00   -0.171005D+01    0.814751D-02
   0   136    0.150981D-01    0.996702D+00   -0.353151D+01    0.907648D-02
   0   137    0.149187D-01    0.997154D+00    0.287293D+01    0.743621D-02
   0   138    0.153131D-01    0.997615D+00   -0.599481D+01    0.674564D-02
   0   139    0.150609D-01    0.997839D+00    0.903489D+01    0.599173D-02
   0   140    0.150862D-01    0.997255D+00    0.682657D+01    0.765226D-02
   0   141    0.152410D-01    0.997896D+00   -0.721511D+01    0.575812D-02
   0   142    0.146555D-01    0.998212D+00   -0.554035D+01    0.546706D-02
   0   143    0.147300D-01    0.997576D+00    0.246493D+01    0.628953D-02
   0   144    0.146783D-01    0.996467D+00   -0.323195D+01    0.106869D-01
   0   145    0.151330D-01    0.997024D+00    0.804592D+01    0.887685D-02
   0   146    0.151454D-01    0.996439D+00   -0.390129D+00    0.102427D-01
   0   147    0.145336D-01    0.996052D+00   -0.588400D+00    0.108177D-01
   0   148    0.147663D-01    0.997526D+00   -0.125445D+01    0.728685D-02
   0   149    0.150765D-01    0.998059D+00    0.513475D+01    0.590343D-02
   0   150    0.147917D-01    0.998034D+00   -0.695037D+01    0.536100D-02
   0   151    0.146616D-01    0.997148D+00   -0.401241D+01    0.806127D-02
   0   152    0.146571D-01    0.996465D+00   -0.105332D+01    0.104921D-01
   0   153    0.149025D-01    0.996042D+00   -0.619627D+01    0.111023D-01
   0   154    0.147324D-01    0.996561D+00   -0.102396D+01    0.913865D-02
   0   155    0.149027D-01    0.997319D+00   -0.207294D+01    0.798466D-02
   0   156    0.148746D-01    0.998422D+00    0.247412D+00    0.488400D-02
   0   157    0.148885D-01    0.997640D+00   -0.566249D+01    0.754265D-02
   0   158    0.150089D-01    0.998026D+00    0.633844D+01    0.576226D-02
   0   159    0.145791D-01    0.997607D+00    0.465939D+01    0.755898D-02
   0   160    0.147410D-01    0.997445D+00    0.342695D+01    0.792714D-02
   0   161    0.148000D-01    0.997002D+00    0.335297D+01    0.799032D-02
   0   162    0.148483D-01    0.997560D+00   -0.630816D+01    0.746854D-02
   0   163    0.142963D-01    0.998842D+00    0.399339D+00    0.331304D-02
   0   164    0.147281D-01    0.997759D+00    0.473778D+01    0.579439D-02
   0   165    0.146342D-01    0.998329D+00   -0.519560D+01    0.406968D-02
   0   166    0.146230D-01    0.997824D+00   -0.494217D+01    0.594025D-02
   0   167    0.142482D-01    0.996585D+00    0.272673D+01    0.102727D-01
   0   168    0.146877D-01    0.998095D+00    0.233496D+01    0.532639D-02
   0   169    0.141742D-01    0.997751D+00    0.120755D+01    0.649045D-02
   0   170    0.145071D-01    0.997915D+00    0.625013D+01    0.539313D-02
   0   171    0.147705D-01    0.997747D+00    0.618340D+00    0.585911D-02
   0   172    0.143055D-01    0.997631D+00    0.520371D+01    0.632264D-02
   0   173    0.146146D-01    0.997894D+00   -0.900572D+01    0.542108D-02
   0   174    0.143206D-01    0.998782D+00   -0.325795D+01    0.319594D-02
   0   175    0.142210D-01    0.998238D+00   -0.589608D+01    0.440016D-02
   0   176    0.143993D-01    0.998592D+00    0.503682D+01    0.410343D-02
   0   177    0.142666D-01    0.997438D+00    0.503690D+00    0.774299D-02
   0   178    0.144536D-01    0.997665D+00   -0.162302D+01    0.719299D-02
   0   179    0.142068D-01    0.997346D+00   -0.489300D+01    0.790033D-02
   0   180    0.143016D-01    0.997434D+00   -0.896357D+00    0.795357D-02
   0   181    0.143368D-01    0.998202D+00    0.155071D+01    0.424634D-02
   0   182    0.144578D-01    0.997573D+00   -0.543194D+01    0.718232D-02
   0   183    0.144413D-01    0.998199D+00   -0.437681D+01    0.536158D-02
   0   184    0.145354D-01    0.999384D+00    0.811436D+01    0.190454D-02
   0   185    0.142370D-01    0.997214D+00    0.483495D+01    0.829053D-02
   0   186    0.143053D-01    0.997060D+00   -0.890911D+00    0.807670D-02
   0   187    0.144453D-01    0.998664D+00   -0.463994D+01    0.393212D-02
   0   188    0.146049D-01    0.998385D+00    0.159977D+00    0.498932D-02
   0   189    0.142616D-01    0.998119D+00    0.454441D+01    0.543304D-02
   0   190    0.142029D-01    0.997643D+00   -0.752984D+01    0.633765D-02
   0   191    0.146068D-01    0.998400D+00    0.283995D+01    0.429835D-02
   0   192    0.140722D-01    0.999275D+00   -0.626800D+01    0.274068D-02
   0   193    0.143443D-01    0.999623D+00    0.148694D+01    0.157314D-02
   0   194    0.143690D-01    0.999252D+00   -0.560555D+01    0.233497D-02
   0   195    0.141756D-01    0.998629D+00   -0.844915D+01    0.364173D-02
   0   196    0.139437D-01    0.999154D+00    0.474631D+01    0.294679D-02
   0   197    0.141958D-01    0.998307D+00    0.669236D+01    0.535869D-02
   0   198    0.142675D-01    0.997766D+00   -0.308935D+01    0.677695D-02
   0   199    0.138757D-01    0.998280D+00   -0.319954D+01    0.543355D-02
   0   200    0.139681D-01    0.998965D+00    0.539670D+01    0.252453D-02
   0   201    0.138923D-01    0.998679D+00   -0.508732D+01    0.383149D-02
   0   202    0.136518D-01    0.998607D+00    0.432936D+01    0.374744D-02
   0   203    0.138409D-01    0.100005D+01   -0.407571D+01   -0.219209D-03
   0   204    0.139188D-01    0.999341D+00   -0.694424D+01    0.145278D-02
   0   205    0.142055D-01    0.999919D+00    0.223379D+01    0.780323D-04
   0   206    0.139517D-01    0.999627D+00    0.608558D+01    0.110482D-02
   0   207    0.138666D-01    0.998346D+00    0.561926D+01    0.523666D-02
   0   208    0.141241D-01    0.997917D+00   -0.329544D+01    0.592524D-02
   0   209    0.138983D-01    0.997758D+00   -0.710867D+01    0.633417D-02
   0   210    0.141841D-01    0.998447D+00    0.526915D+01    0.411434D-02
   0   211    0.146075D-01    0.998995D+00    0.235916D+01    0.298241D-02
   0   212    0.145637D-01    0.998680D+00    0.834403D+00    0.438784D-02
   0   213    0.142985D-01    0.997434D+00   -0.613775D+00    0.683829D-02
   0   214    0.146193D-01    0.998741D+00    0.467825D+01    0.304385D-02
   0   215    0.138908D-01    0.999427D+00    0.292841D+01    0.213805D-02
   0   216    0.143074D-01    0.999158D+00   -0.257819D+01    0.213600D-02
   0   217    0.139657D-01    0.999424D+00    0.728247D+00    0.927033D-03
   0   218    0.140319D-01    0.999459D+00    0.618914D+00    0.176750D-02
   0   219    0.139119D-01    0.999858D+00   -0.645636D+01    0.388991D-03
   0   220    0.141005D-01    0.999288D+00    0.250149D+01    0.177257D-02
   0   221    0.136494D-01    0.100028D+01    0.320749D+01   -0.636494D-03
   0   222    0.138280D-01    0.999355D+00    0.622256D+01    0.182394D-02
   0   223    0.132573D-01    0.999399D+00   -0.349878D+01    0.219041D-02
   0   224    0.136417D-01    0.100003D+01   -0.823932D+01   -0.463890D-03
   0   225    0.134321D-01    0.999309D+00    0.675848D+01    0.260814D-02
   0   226    0.139507D-01    0.998379D+00    0.589417D+01    0.433778D-02
   0   227    0.141771D-01    0.998298D+00    0.413621D+01    0.411328D-02
   0   228    0.144127D-01    0.997310D+00   -0.340824D+01    0.801062D-02
   0   229    0.143442D-01    0.997000D+00    0.222042D+01    0.859012D-02
   0   230    0.150658D-01    0.995790D+00    0.707971D+01    0.114891D-01
   0   231    0.150820D-01    0.996820D+00    0.401333D+01    0.945310D-02
   0   232    0.152345D-01    0.995795D+00   -0.420824D+00    0.121436D-01
   0   233    0.154845D-01    0.994279D+00   -0.147075D+01    0.166728D-01
   0   234    0.160424D-01    0.992611D+00    0.451871D+01    0.204491D-01
   0   235    0.166593D-01    0.989796D+00   -0.726122D+01    0.295492D-01
   0   236    0.175396D-01    0.986524D+00   -0.550029D+01    0.381417D-01
   0   237    0.191043D-01    0.980949D+00    0.719173D+01    0.546928D-01
   0   238    0.218356D-01    0.970682D+00   -0.106139D+02    0.820323D-01
   0   239    0.254889D-01    0.954360D+00   -0.101001D+02    0.122937D+00
   0   240    0.283799D-01    0.926553D+00    0.412684D+00    0.182064D+00
   0   241    0.278503D-01    0.884059D+00    0.320761D+01    0.246786D+00
   0   242    0.217734D-01    0.821375D+00    0.547808D+01    0.304036D+00
   0   243    0.140734D-01    0.733243D+00    0.106885D+02    0.347470D+00
   0   244    0.715791D-02    0.626940D+00    0.462840D+01    0.375085D+00
   0   245    0.315948D-02    0.515748D+00    0.174775D+01    0.391726D+00
   0   246    0.123760D-02    0.410131D+00    0.137436D+01    0.401932D+00
   0   247    0.453456D-03    0.316788D+00    0.112893D+00    0.408391D+00
   0   248    0.160681D-03    0.238611D+00    0.152934D+00    0.412606D+00
   0   249    0.543385D-04    0.175852D+00    0.603944D-01    0.415420D+00
   0   250    0.177185D-04    0.127162D+00    0.864153D-02    0.417329D+00
   0   251    0.575626D-05    0.904324D-01    0.211862D-02    0.418635D+00
   0   252    0.177640D-05    0.633786D-01    0.821107D-03    0.419533D+00
   0   253    0.544451D-06    0.438530D-01    0.433861D-03    0.420149D+00
   0   254    0.165568D-06    0.300046D-01    0.267645D-04    0.420572D+00
   0   255    0.478778D-07    0.203295D-01    0.303327D-04    0.420860D+00
   0   256    0.136541D-07    0.136570D-01    0.162938D-04    0.421055D+00
   0   257    0.397510D-08    0.910648D-02    0.136022D-05    0.421187D+00
   0   258    0.116188D-08    0.603295D-02    0.759974D-06    0.421275D+00
   0   259    0.341360D-09    0.397427D-02    0.246287D-06    0.421334D+00
   0   260    0.100412D-09    0.260524D-02    0.743047D-07    0.421373D+00
   0   261    0.317957D-10    0.170051D-02    0.283919D-07    0.421399D+00
   0   262    0.986315D-11    0.110583D-02    0.187845D-08    0.421416D+00
   0   263    0.286555D-11    0.716781D-03    0.260255D-08    0.421427D+00
   0   264    0.874005D-12    0.463288D-03    0.280489D-09    0.421434D+00
   0   265    0.250895D-12    0.298703D-03    0.928385D-10    0.421439D+00
   0   266    0.736691D-13    0.192171D-03    0.782831D-10    0.421442D+00
   0   267    0.209393D-13    0.123400D-03    0.228412D-10    0.421444D+00
   0   268    0.576627D-14    0.791082D-04    0.794249D-11    0.421445D+00
   0   269    0.163666D-14    0.506408D-04    0.119321D-11    0.421446D+00
   0   270    0.453389D-15    0.323764D-04    0.518861D-12    0.421446D+00
   0   271    0.128136D-15    0.206764D-04    0.339295D-13    0.421446D+00
   0   272    0.341855D-16    0.131916D-04    0.436165D-13    0.421447D+00
   0   273    0.892644D-17    0.840918D-05    0.118646D-13    0.421447D+00
   0   274    0.238739D-17    0.535655D-05    0.213835D-14    0.421447D+00
   0   275    0.634590D-18    0.340984D-05    0.418069D-15    0.421447D+00
   0   276    0.164261D-18    0.216937D-05    0.218764D-15    0.421447D+00
   0   277    0.431448D-19    0.137949D-05    0.129147D-16    0.421447D+00
   0   278    0.113480D-19    0.876822D-06    0.119428D-16    0.421447D+00
   0   279    0.291419D-20    0.557107D-06    0.176667D-17    0.421447D+00
   0   280    0.734707D-21    0.353850D-06    0.254752D-18    0.421447D+00
   0   281    0.189766D-21    0.224684D-06    0.100717D-18    0.421447D+00
   0   282    0.479005D-22    0.142631D-06    0.139439D-19    0.421447D+00
   0   283    0.120400D-22    0.905225D-07    0.112751D-19    0.421447D+00
   0   284    0.303440D-23    0.574397D-07    0.311583D-20    0.421447D+00
   0   285    0.746885D-24    0.364411D-07    0.104097D-20    0.421447D+00
   0   286    0.189557D-24    0.231156D-07    0.217467D-21    0.421447D+00
   0   287    0.472292D-25    0.146608D-07    0.670589D-22    0.421447D+00
   0   288    0.115043D-25    0.929737D-08    0.416565D-23    0.421447D+00
   0   289    0.285264D-26    0.589544D-08    0.182544D-23    0.421447D+00
   0   290    0.707477D-27    0.373794D-08    0.984298D-24    0.421447D+00
   0   291    0.175843D-27    0.236980D-08    0.195668D-24    0.421447D+00
   0   292    0.425580D-28    0.150232D-08    0.569115D-25    0.421447D+00
   0   293    0.104685D-28    0.952319D-09    0.100149D-25    0.421447D+00
   0   294    0.255714D-29    0.603642D-09    0.265239D-26    0.421447D+00
   0   295    0.618799D-30    0.382609D-09    0.196027D-27    0.421447D+00
   0   296    0.147996D-30    0.242500D-09    0.178572D-27    0.421447D+00
   0   297    0.365836D-31    0.153692D-09    0.264890D-28    0.421447D+00
   0   298    0.920803D-32    0.974037D-10    0.153213D-29    0.421447D+00
   0   299    0.217592D-32    0.617286D-10    0.236647D-29    0.421447D+00
   0   300    0.527403D-33    0.391188D-10    0.227365D-30    0.421447D+00
   0   301    0.128441D-33    0.247898D-10    0.176176D-30    0.421447D+00
   0   302    0.303778D-34    0.157091D-10    0.453607D-31    0.421447D+00
   0   303    0.731726D-35    0.995447D-11    0.305127D-32    0.421447D+00
   0   304    0.180924D-35    0.630779D-11    0.938332D-33    0.421447D+00
   0   305    0.441458D-36    0.399695D-11    0.223872D-33    0.421447D+00
   0   306    0.104308D-36    0.253263D-11    0.831904D-34    0.421447D+00
   0   307    0.246495D-37    0.160475D-11    0.137815D-34    0.421447D+00
   0   308    0.594201D-38    0.101680D-11    0.506033D-35    0.421447D+00
   0   309    0.144274D-38    0.644251D-12    0.103664D-35    0.421447D+00
   0   310    0.344526D-39    0.408195D-12    0.384119D-36    0.421447D+00
   0   311    0.797202D-40    0.258627D-12    0.759224D-37    0.421447D+00
   0   312    0.194115D-40    0.163860D-12    0.892127D-38    0.421447D+00
   0   313    0.476628D-41    0.103815D-12    0.239778D-38    0.421447D+00
   0   314    0.112512D-41    0.657725D-13    0.156390D-38    0.421447D+00
   0   315    0.275849D-42    0.416696D-13    0.216967D-39    0.421447D+00
   0   316    0.661640D-43    0.263989D-13    0.321259D-40    0.421447D+00
   0   317    0.156707D-43    0.167242D-13    0.192953D-40    0.421447D+00
   0   318    0.376420D-44    0.105948D-13    0.277216D-41    0.421447D+00
   0   319    0.906944D-45    0.671174D-14    0.570212D-42    0.421447D+00
   0   320    0.219736D-45    0.425175D-14    0.271811D-42    0.421447D+00
   0   321    0.509584D-46    0.269334D-14    0.494582D-43    0.421447D+00
   0   322    0.121546D-46    0.170611D-14    0.540600D-44    0.421447D+00
   0   323    0.290706D-47    0.108072D-14    0.294336D-44    0.421447D+00
   0   324    0.676106D-48    0.684555D-15    0.626478D-45    0.421447D+00
   0   325    0.165291D-48    0.433606D-15    0.231007D-45    0.421447D+00
   0   326    0.387965D-49    0.274646D-15    0.173367D-46    0.421447D+00
   0   327    0.948080D-50    0.173958D-15    0.497084D-47    0.421447D+00
   0   328    0.217956D-50    0.110180D-15    0.309667D-47    0.421447D+00
   0   329    0.532929D-51    0.697838D-16    0.749334D-48    0.421447D+00
   0   330    0.127607D-51    0.441975D-16    0.670382D-49    0.421447D+00
   0   331    0.306706D-52    0.279918D-16    0.123042D-49    0.421447D+00
   0   332    0.718762D-53    0.177279D-16    0.818484D-50    0.421447D+00
   0   333    0.170143D-53    0.112273D-16    0.166892D-50    0.421447D+00
   0   334    0.390509D-54    0.711021D-17    0.390689D-51    0.421447D+00
   0   335    0.950508D-55    0.450281D-17    0.404882D-52    0.421447D+00
   0   336    0.225669D-55    0.285153D-17    0.968366D-53    0.421447D+00
   0   337    0.544242D-56    0.180578D-17    0.379620D-53    0.421447D+00
   0   338    0.130142D-56    0.114352D-17    0.873581D-54    0.421447D+00
   0   339    0.294748D-57    0.724128D-18    0.387089D-54    0.421447D+00
   0   340    0.708757D-58    0.458544D-18    0.753436D-55    0.421447D+00
   0   341    0.162249D-58    0.290363D-18    0.253868D-55    0.421447D+00
   0   342    0.396462D-59    0.183863D-18    0.171370D-56    0.421447D+00
   0   343    0.934120D-60    0.116424D-18    0.456563D-57    0.421447D+00
   0   344    0.222414D-60    0.737201D-19    0.268548D-57    0.421447D+00
   0   345    0.517198D-61    0.466793D-19    0.699608D-58    0.421447D+00
   0   346    0.119248D-61    0.295568D-19    0.160847D-58    0.421447D+00
   0   347    0.281106D-62    0.187148D-19    0.197803D-59    0.421447D+00
   0   348    0.674106D-63    0.118498D-19    0.742179D-60    0.421447D+00
   0   349    0.156674D-63    0.750294D-20    0.119237D-60    0.421447D+00
   0   350    0.373286D-64    0.475060D-20    0.332015D-61    0.421447D+00
   0   351    0.885940D-65    0.300789D-20    0.110266D-61    0.421447D+00
   0   352    0.210042D-65    0.190446D-20    0.265564D-62    0.421447D+00
   0   353    0.498815D-66    0.120581D-20    0.327060D-63    0.421447D+00
   0   354    0.120407D-66    0.763457D-21    0.123498D-63    0.421447D+00
   0   355    0.289870D-67    0.483378D-21    0.265924D-64    0.421447D+00
   0   356    0.677369D-68    0.306046D-21    0.878611D-65    0.421447D+00
   0   357    0.158939D-68    0.193769D-21    0.110898D-65    0.421447D+00
   0   358    0.381923D-69    0.122682D-21    0.212887D-66    0.421447D+00
   0   359    0.910127D-70    0.776737D-22    0.985352D-67    0.421447D+00
   0   360    0.222578D-70    0.491774D-22    0.125535D-67    0.421447D+00
   0   361    0.515099D-71    0.311355D-22    0.754850D-68    0.421447D+00
   0   362    0.120134D-71    0.197126D-22    0.655607D-69    0.421447D+00
   0   363    0.286896D-72    0.124805D-22    0.108199D-69    0.421447D+00
   0   364    0.702486D-73    0.790161D-23    0.521656D-70    0.421447D+00
   0   365    0.161710D-73    0.500264D-23    0.181980D-70    0.421447D+00
   0   366    0.383077D-74    0.316724D-23    0.276343D-71    0.421447D+00
   0   367    0.892060D-75    0.200521D-23    0.844006D-72    0.421447D+00
   0   368    0.214404D-75    0.126952D-23    0.160491D-72    0.421447D+00
   0   369    0.516955D-76    0.803741D-24    0.393654D-73    0.421447D+00
   0   370    0.115651D-76    0.508852D-24    0.127664D-73    0.421447D+00
   0   371    0.281000D-77    0.322155D-24    0.284988D-74    0.421447D+00
   0   372    0.669478D-78    0.203956D-24    0.414937D-75    0.421447D+00
   0   373    0.155975D-78    0.129123D-24    0.169626D-75    0.421447D+00
   0   374    0.373709D-79    0.817469D-25    0.185343D-76    0.421447D+00
   0   375    0.891737D-80    0.517531D-25    0.981437D-77    0.421447D+00
   0   376    0.199833D-80    0.327641D-25    0.290808D-77    0.421447D+00
   0   377    0.481830D-81    0.207423D-25    0.202218D-78    0.421447D+00
   0   378    0.116554D-81    0.131315D-25    0.161555D-78    0.421447D+00
   0   379    0.272860D-82    0.831316D-26    0.364937D-79    0.421447D+00
   0   380    0.631426D-83    0.526279D-26    0.546010D-80    0.421447D+00
   0   381    0.150132D-83    0.333167D-26    0.742305D-81    0.421447D+00
   0   382    0.351474D-84    0.210913D-26    0.469919D-81    0.421447D+00
   0   383    0.802039D-85    0.133519D-26    0.883850D-82    0.421447D+00
   0   384    0.192083D-85    0.845232D-27    0.162915D-82    0.421447D+00
   0   385    0.454664D-86    0.535063D-27    0.262871D-83    0.421447D+00
   0   386    0.104670D-86    0.338711D-27    0.155903D-83    0.421447D+00
   0   387    0.247760D-87    0.214411D-27    0.237748D-84    0.421447D+00
   0   388    0.604631D-88    0.135724D-27    0.601626D-85    0.421447D+00
   0   389    0.139320D-88    0.859120D-28    0.161943D-85    0.421447D+00
   0   390    0.321301D-89    0.543787D-28    0.314471D-86    0.421447D+00
   0   391    0.757166D-90    0.344157D-28    0.301782D-87    0.421447D+00
   0   392    0.180373D-90    0.217758D-28    0.240711D-87    0.421447D+00
   0   393    0.442863D-91    0.137698D-28    0.143930D-88    0.421447D+00
   0   394    0.104158D-91    0.869412D-29    0.153928D-88    0.421447D+00
   0   395    0.240071D-92    0.546879D-29    0.281241D-89    0.421447D+00
   0   396    0.575580D-93    0.340745D-29    0.766840D-90    0.421447D+00
   0   397    0.134119D-93    0.207140D-29    0.135751D-90    0.421447D+00