variables =  "IG"  "JG"  "PHI"  "Temp."  "Latent_heat"  "mm"
ZONE  I=  401  J=  101
   0     0    0.100000D+01    0.943331D+00    0.000000D+00    0.147701D+00
   0     1    0.100000D+01    0.943331D+00    0.000000D+00    0.147701D+00
   0     2    0.100000D+01    0.943428D+00    0.000000D+00    0.147490D+00
   0     3    0.100000D+01    0.943623D+00    0.000000D+00    0.147068D+00
   0     4    0.100000D+01    0.943913D+00    0.000000D+00    0.146435D+00
   0     5    0.100000D+01    0.944300D+00    0.000000D+00    0.145591D+00
   0     6    0.100000D+01    0.944783D+00    0.000000D+00    0.144533D+00
   0     7    0.100000D+01    0.945360D+00    0.000000D+00    0.143263D+00
   0     8    0.100000D+01    0.946031D+00    0.000000D+00    0.141779D+00
   0     9    0.100000D+01    0.946794D+00    0.000000D+00    0.140080D+00
   0    10    0.100000D+01    0.947649D+00    0.000000D+00    0.138165D+00
   0    11    0.100000D+01    0.948594D+00    0.000000D+00    0.136032D+00
   0    12    0.100000D+01    0.949627D+00    0.000000D+00    0.133681D+00
   0    13    0.100000D+01    0.950747D+00    0.000000D+00    0.131110D+00
   0    14    0.100000D+01    0.951952D+00    0.000000D+00    0.128318D+00
   0    15    0.100000D+01    0.953241D+00    0.000000D+00    0.125304D+00
   0    16    0.100000D+01    0.954611D+00    0.000000D+00    0.122066D+00
   0    17    0.100000D+01    0.956061D+00    0.000000D+00    0.118603D+00
   0    18    0.100000D+01    0.957588D+00    0.000000D+00    0.114915D+00
   0    19    0.100000D+01    0.959191D+00    0.000000D+00    0.111000D+00
   0    20    0.100000D+01    0.960868D+00    0.000000D+00    0.106859D+00
   0    21    0.100000D+01    0.962616D+00    0.000000D+00    0.102490D+00
   0    22    0.100000D+01    0.964434D+00    0.000000D+00    0.978935D-01
   0    23    0.100000D+01    0.966320D+00    0.000000D+00    0.930702D-01
   0    24    0.100000D+01    0.968271D+00    0.000000D+00    0.880205D-01
   0    25    0.100000D+01    0.970286D+00    0.000000D+00    0.827456D-01
   0    26    0.100000D+01    0.972363D+00    0.000000D+00    0.772466D-01
   0    27    0.100000D+01    0.974501D+00    0.266454D-10    0.715247D-01
   0    28    0.100000D+01    0.976700D+00    0.146549D-09    0.655807D-01
   0    29    0.100000D+01    0.978958D+00    0.191847D-08    0.594147D-01
   0    30    0.100000D+01    0.981277D+00    0.194511D-07    0.530246D-01
   0    31    0.100000D+01    0.983658D+00    0.130616D-06    0.464058D-01
   0    32    0.100000D+01    0.986107D+00    0.517586D-07    0.395482D-01
   0    33    0.100000D+01    0.988630D+00    0.669791D-05    0.324342D-01
   0    34    0.100000D+01    0.991239D+00   -0.589826D-05    0.250331D-01
   0    35    0.100000D+01    0.993956D+00   -0.134717D-03    0.172939D-01
   0    36    0.999997D+00    0.996812D+00    0.600195D-03    0.912996D-02
   0    37    0.999982D+00    0.999863D+00    0.628260D-02    0.392035D-03
   0    38    0.999891D+00    0.100320D+01    0.160656D-01   -0.917242D-02
   0    39    0.999346D+00    0.100698D+01   -0.209086D-01   -0.199484D-01
   0    40    0.996114D+00    0.101134D+01    0.112045D+01   -0.323355D-01
   0    41    0.977007D+00    0.101609D+01   -0.657048D+01   -0.457879D-01
   0    42    0.871766D+00    0.102023D+01   -0.175260D+02   -0.580905D-01
   0    43    0.446191D+00    0.102764D+01   -0.309539D+02   -0.758951D-01
   0    44    0.104199D+00    0.102694D+01    0.210026D+02   -0.734322D-01
   0    45    0.264680D-01    0.102327D+01   -0.914964D+01   -0.652547D-01
   0    46    0.105791D-01    0.101923D+01   -0.102641D+01   -0.548236D-01
   0    47    0.731650D-02    0.101464D+01   -0.102859D+01   -0.413793D-01
   0    48    0.761620D-02    0.101204D+01   -0.357034D+01   -0.342106D-01
   0    49    0.845022D-02    0.101028D+01   -0.188415D+01   -0.293313D-01
   0    50    0.933433D-02    0.100754D+01   -0.333433D+01   -0.218073D-01
   0    51    0.981936D-02    0.100618D+01   -0.363081D+01   -0.180469D-01
   0    52    0.104447D-01    0.100553D+01   -0.425968D+00   -0.161181D-01
   0    53    0.109159D-01    0.100472D+01   -0.584866D+01   -0.132867D-01
   0    54    0.110381D-01    0.100366D+01   -0.630727D+01   -0.102610D-01
   0    55    0.112245D-01    0.100355D+01   -0.299756D+00   -0.995273D-02
   0    56    0.115651D-01    0.100372D+01   -0.224286D+01   -0.104154D-01
   0    57    0.119172D-01    0.100214D+01   -0.858122D+00   -0.663357D-02
   0    58    0.119159D-01    0.100247D+01    0.202528D+01   -0.674733D-02
   0    59    0.121742D-01    0.100230D+01    0.546828D+01   -0.691140D-02
   0    60    0.123134D-01    0.100242D+01   -0.308567D+01   -0.666894D-02
   0    61    0.125131D-01    0.100166D+01   -0.339220D+01   -0.532410D-02
   0    62    0.127736D-01    0.100106D+01   -0.543744D+01   -0.330182D-02
   0    63    0.129947D-01    0.100044D+01    0.269337D+01   -0.846555D-03
   0    64    0.131773D-01    0.100087D+01    0.635320D+01   -0.206301D-02
   0    65    0.133523D-01    0.100122D+01    0.308931D+01   -0.406153D-02
   0    66    0.136498D-01    0.100146D+01    0.713752D+01   -0.419555D-02
   0    67    0.137080D-01    0.100013D+01    0.414235D+01   -0.108918D-02
   0    68    0.137186D-01    0.999945D+00   -0.601784D+01    0.658656D-03
   0    69    0.137504D-01    0.999699D+00   -0.607497D+01    0.768289D-03
   0    70    0.137064D-01    0.998954D+00   -0.228404D+01    0.283801D-02
   0    71    0.138765D-01    0.998416D+00    0.814685D+00    0.478275D-02
   0    72    0.140399D-01    0.998919D+00    0.459489D+01    0.252725D-02
   0    73    0.145121D-01    0.997684D+00    0.590603D+01    0.632444D-02
   0    74    0.144322D-01    0.998093D+00    0.609816D+01    0.505513D-02
   0    75    0.140974D-01    0.998342D+00    0.835535D+01    0.432186D-02
   0    76    0.143420D-01    0.998386D+00   -0.373978D+01    0.459746D-02
   0    77    0.151664D-01    0.998034D+00   -0.617687D+01    0.550822D-02
   0    78    0.150749D-01    0.998067D+00   -0.721916D+01    0.538679D-02
   0    79    0.149907D-01    0.997779D+00   -0.700184D+01    0.558481D-02
   0    80    0.148442D-01    0.997263D+00   -0.683200D+01    0.767589D-02
   0    81    0.149711D-01    0.996479D+00    0.687716D+01    0.951148D-02
   0    82    0.153955D-01    0.996864D+00   -0.216789D+01    0.944356D-02
   0    83    0.153721D-01    0.996466D+00   -0.412343D+01    0.970398D-02
   0    84    0.149184D-01    0.995651D+00   -0.610838D+01    0.122354D-01
   0    85    0.150932D-01    0.997514D+00    0.725970D+01    0.724576D-02
   0    86    0.151942D-01    0.997865D+00    0.600107D+01    0.629941D-02
   0    87    0.152229D-01    0.997553D+00   -0.121677D+01    0.723915D-02
   0    88    0.155925D-01    0.996726D+00    0.785875D+01    0.884057D-02
   0    89    0.159712D-01    0.997210D+00   -0.631242D+01    0.868607D-02
   0    90    0.154370D-01    0.997056D+00   -0.320715D+01    0.814990D-02
   0    91    0.149417D-01    0.996280D+00   -0.633383D+01    0.102808D-01
   0    92    0.149804D-01    0.995045D+00   -0.523299D+01    0.137709D-01
   0    93    0.153229D-01    0.995081D+00   -0.499774D+01    0.140580D-01
   0    94    0.153710D-01    0.994899D+00    0.224755D+01    0.150478D-01
   0    95    0.151787D-01    0.995402D+00   -0.406987D+01    0.135094D-01
   0    96    0.156811D-01    0.996122D+00    0.505619D+01    0.104277D-01
   0    97    0.155245D-01    0.995964D+00    0.335881D+01    0.113932D-01
   0    98    0.161405D-01    0.994996D+00    0.738120D+00    0.137079D-01
   0    99    0.157255D-01    0.995360D+00   -0.789331D+01    0.135265D-01
   0   100    0.155808D-01    0.996578D+00   -0.293989D+01    0.105159D-01
   0   101    0.153494D-01    0.996133D+00    0.468012D+01    0.112322D-01
   0   102    0.154765D-01    0.996141D+00    0.609209D+01    0.113998D-01
   0   103    0.156380D-01    0.996581D+00    0.306264D+01    0.963734D-02
   0   104    0.160300D-01    0.996740D+00   -0.863942D+01    0.921671D-02
   0   105    0.158472D-01    0.995713D+00    0.385229D+01    0.115569D-01
   0   106    0.159034D-01    0.995738D+00    0.306952D+01    0.124479D-01
   0   107    0.155551D-01    0.995214D+00   -0.759122D+01    0.133768D-01
   0   108    0.156995D-01    0.995880D+00   -0.190006D+01    0.118852D-01
   0   109    0.157029D-01    0.996795D+00   -0.182669D+01    0.927858D-02
   0   110    0.154484D-01    0.997601D+00   -0.530835D+01    0.712318D-02
   0   111    0.152897D-01    0.996654D+00   -0.783866D+01    0.913502D-02
   0   112    0.154889D-01    0.996594D+00   -0.277137D+00    0.935390D-02
   0   113    0.153925D-01    0.996340D+00   -0.711437D+01    0.101262D-01
   0   114    0.152562D-01    0.995689D+00   -0.247326D+01    0.119734D-01
   0   115    0.156094D-01    0.996829D+00   -0.243370D+01    0.938148D-02
   0   116    0.151984D-01    0.996404D+00    0.147003D+01    0.108616D-01
   0   117    0.152883D-01    0.996874D+00   -0.389065D+01    0.963182D-02
   0   118    0.155727D-01    0.996854D+00   -0.627581D+01    0.953123D-02
   0   119    0.159723D-01    0.996919D+00   -0.722847D+00    0.877466D-02
   0   120    0.153091D-01    0.997172D+00    0.733700D+01    0.863458D-02
   0   121    0.157389D-01    0.996061D+00    0.334659D+00    0.115156D-01
   0   122    0.157729D-01    0.997189D+00   -0.250195D+01    0.784279D-02
   0   123    0.152865D-01    0.996847D+00    0.260592D+01    0.894720D-02
   0   124    0.157332D-01    0.996323D+00    0.460194D+01    0.110615D-01
   0   125    0.157366D-01    0.995109D+00    0.593628D+01    0.135878D-01
   0   126    0.154720D-01    0.995731D+00    0.790222D+01    0.119545D-01
   0   127    0.152908D-01    0.995369D+00    0.886961D+01    0.127417D-01
   0   128    0.155095D-01    0.995892D+00    0.563147D+01    0.120095D-01
   0   129    0.156311D-01    0.995443D+00   -0.126879D+01    0.130300D-01
   0   130    0.157195D-01    0.994781D+00   -0.721117D+00    0.149283D-01
   0   131    0.157487D-01    0.994888D+00    0.155190D+01    0.146188D-01
   0   132    0.155879D-01    0.996478D+00    0.273547D+01    0.950903D-02
   0   133    0.156039D-01    0.996695D+00    0.591710D+01    0.983582D-02
   0   134    0.154749D-01    0.996562D+00    0.703415D+01    0.101213D-01
   0   135    0.156282D-01    0.996073D+00    0.797586D+01    0.105623D-01
   0   136    0.155944D-01    0.996668D+00    0.144084D+01    0.101063D-01
   0   137    0.155800D-01    0.996748D+00    0.653349D+01    0.100863D-01
   0   138    0.155473D-01    0.996974D+00   -0.249730D+01    0.838261D-02
   0   139    0.155153D-01    0.997319D+00   -0.611430D+01    0.740691D-02
   0   140    0.154028D-01    0.996322D+00   -0.668926D+01    0.100497D-01
   0   141    0.161933D-01    0.996412D+00   -0.105059D+02    0.963081D-02
   0   142    0.159451D-01    0.996386D+00    0.657839D+01    0.106743D-01
   0   143    0.157723D-01    0.995281D+00   -0.996818D+01    0.139191D-01
   0   144    0.153077D-01    0.995496D+00    0.630060D+01    0.130857D-01
   0   145    0.150757D-01    0.996291D+00    0.270202D+01    0.112413D-01
   0   146    0.152804D-01    0.996946D+00   -0.236905D+01    0.934597D-02
   0   147    0.155691D-01    0.996416D+00   -0.645305D+01    0.970932D-02
   0   148    0.154688D-01    0.996795D+00    0.530285D+01    0.840432D-02
   0   149    0.155345D-01    0.996682D+00    0.802085D+01    0.102015D-01
   0   150    0.154691D-01    0.996905D+00   -0.264144D+01    0.865077D-02
   0   151    0.156456D-01    0.995259D+00    0.513176D+01    0.140421D-01
   0   152    0.153018D-01    0.995463D+00    0.787782D+01    0.126172D-01
   0   153    0.154555D-01    0.995105D+00    0.505183D+01    0.141855D-01
   0   154    0.155618D-01    0.994828D+00    0.764277D+01    0.143831D-01
   0   155    0.157155D-01    0.995951D+00    0.601732D+01    0.117596D-01
   0   156    0.154318D-01    0.995733D+00   -0.421264D+01    0.121830D-01
   0   157    0.151564D-01    0.995792D+00   -0.407478D+01    0.122975D-01
   0   158    0.156733D-01    0.996238D+00   -0.895808D+01    0.108511D-01
   0   159    0.158447D-01    0.996736D+00    0.178416D+01    0.970581D-02
   0   160    0.149941D-01    0.996635D+00    0.708654D+01    0.904250D-02
   0   161    0.151298D-01    0.997823D+00    0.137148D+01    0.618058D-02
   0   162    0.149465D-01    0.997692D+00    0.738620D+00    0.621223D-02
   0   163    0.145658D-01    0.997599D+00    0.755384D+01    0.693941D-02
   0   164    0.146816D-01    0.996246D+00    0.175105D+01    0.101977D-01
   0   165    0.153229D-01    0.996834D+00   -0.106942D+02    0.857722D-02
   0   166    0.150713D-01    0.997425D+00    0.435315D+01    0.781153D-02
   0   167    0.146367D-01    0.997044D+00    0.839960D+00    0.865478D-02
   0   168    0.149084D-01    0.997056D+00    0.610867D+01    0.909689D-02
   0   169    0.145963D-01    0.997989D+00   -0.580634D+01    0.624427D-02
   0   170    0.151387D-01    0.997809D+00    0.364004D+01    0.623626D-02
   0   171    0.151468D-01    0.997265D+00    0.447542D+01    0.745459D-02
   0   172    0.148662D-01    0.996055D+00    0.945819D+01    0.118107D-01
   0   173    0.151065D-01    0.996821D+00    0.771381D+01    0.901562D-02
   0   174    0.151748D-01    0.997165D+00    0.204812D+01    0.823378D-02
   0   175    0.148828D-01    0.996357D+00   -0.562617D+01    0.101987D-01
   0   176    0.149801D-01    0.997592D+00   -0.516989D+01    0.630909D-02
   0   177    0.148024D-01    0.998533D+00   -0.369385D+01    0.458401D-02
   0   178    0.146386D-01    0.997879D+00    0.862753D+01    0.643951D-02
   0   179    0.144965D-01    0.997563D+00    0.375297D+01    0.646417D-02
   0   180    0.150152D-01    0.997424D+00   -0.909385D+01    0.669675D-02
   0   181    0.144517D-01    0.997387D+00   -0.707564D+00    0.698433D-02
   0   182    0.146775D-01    0.996694D+00    0.423802D+01    0.955248D-02
   0   183    0.143506D-01    0.996885D+00    0.349259D+01    0.855697D-02
   0   184    0.150605D-01    0.997277D+00    0.652669D+01    0.810433D-02
   0   185    0.147458D-01    0.997953D+00    0.765629D+01    0.619065D-02
   0   186    0.150034D-01    0.997694D+00    0.361614D+01    0.580183D-02
   0   187    0.151760D-01    0.996629D+00   -0.307873D+01    0.104668D-01
   0   188    0.148837D-01    0.996766D+00    0.660705D+00    0.958398D-02
   0   189    0.146932D-01    0.996806D+00   -0.628628D+01    0.937689D-02
   0   190    0.149843D-01    0.995862D+00    0.253517D+01    0.117114D-01
   0   191    0.150887D-01    0.996184D+00    0.328609D+01    0.106826D-01
   0   192    0.148436D-01    0.996582D+00   -0.692519D+01    0.997880D-02
   0   193    0.144170D-01    0.997133D+00    0.385881D+01    0.885020D-02
   0   194    0.144623D-01    0.996550D+00    0.339599D+01    0.105087D-01
   0   195    0.145311D-01    0.996793D+00   -0.776492D+01    0.875364D-02
   0   196    0.143895D-01    0.997029D+00    0.917630D+01    0.921736D-02
   0   197    0.149494D-01    0.995692D+00    0.634689D+01    0.119556D-01
   0   198    0.148104D-01    0.995627D+00   -0.654820D+01    0.126528D-01
   0   199    0.149427D-01    0.997178D+00    0.220574D+01    0.793154D-02
   0   200    0.148832D-01    0.996507D+00   -0.278243D+01    0.940468D-02
   0   201    0.148535D-01    0.997598D+00    0.379845D+01    0.645627D-02
   0   202    0.148955D-01    0.997523D+00    0.330811D+01    0.741676D-02
   0   203    0.152824D-01    0.997665D+00   -0.799568D+01    0.696793D-02
   0   204    0.150919D-01    0.996476D+00   -0.233009D+01    0.937857D-02
   0   205    0.150518D-01    0.997409D+00    0.755240D+01    0.731950D-02
   0   206    0.147581D-01    0.997678D+00   -0.614525D+01    0.618519D-02
   0   207    0.149131D-01    0.997106D+00   -0.746165D+01    0.880965D-02
   0   208    0.146673D-01    0.997239D+00    0.747911D+01    0.758687D-02
   0   209    0.145447D-01    0.997629D+00   -0.716908D+01    0.651529D-02
   0   210    0.144550D-01    0.997259D+00    0.374689D+01    0.738367D-02
   0   211    0.148045D-01    0.997655D+00    0.798500D+01    0.608142D-02
   0   212    0.148773D-01    0.997911D+00    0.591782D+01    0.613249D-02
   0   213    0.147224D-01    0.997158D+00    0.189180D+01    0.758202D-02
   0   214    0.148386D-01    0.997816D+00   -0.326319D+01    0.615505D-02
   0   215    0.147493D-01    0.997664D+00   -0.118938D+01    0.620870D-02
   0   216    0.149640D-01    0.997995D+00   -0.103878D+01    0.640114D-02
   0   217    0.144701D-01    0.997871D+00    0.371649D+01    0.549014D-02
   0   218    0.146358D-01    0.998004D+00    0.754706D+01    0.512225D-02
   0   219    0.142820D-01    0.998726D+00   -0.507264D+01    0.326655D-02
   0   220    0.145561D-01    0.999172D+00   -0.237892D+01    0.279729D-02
   0   221    0.142181D-01    0.999378D+00   -0.393194D+01    0.115447D-02
   0   222    0.142948D-01    0.999563D+00    0.593451D+01    0.120466D-02
   0   223    0.143560D-01    0.998183D+00    0.323155D+01    0.567795D-02
   0   224    0.149074D-01    0.998600D+00    0.480869D+01    0.442576D-02
   0   225    0.141830D-01    0.998594D+00   -0.365764D+01    0.423989D-02
   0   226    0.142840D-01    0.998139D+00   -0.447071D+01    0.585968D-02
   0   227    0.142199D-01    0.998148D+00   -0.799730D+01    0.480053D-02
   0   228    0.139025D-01    0.998784D+00    0.398679D+01    0.326860D-02
   0   229    0.141542D-01    0.999465D+00   -0.520804D+01    0.154815D-02
   0   230    0.139326D-01    0.998892D+00    0.875520D+01    0.249234D-02
   0   231    0.141065D-01    0.999052D+00   -0.238183D+01    0.310634D-02
   0   232    0.139936D-01    0.998458D+00    0.321840D+00    0.417159D-02
   0   233    0.138910D-01    0.996961D+00   -0.209266D+01    0.850554D-02
   0   234    0.140652D-01    0.997370D+00   -0.346951D+01    0.745220D-02
   0   235    0.142669D-01    0.996562D+00   -0.819133D+01    0.930863D-02
   0   236    0.143620D-01    0.997319D+00    0.386698D+01    0.788183D-02
   0   237    0.142615D-01    0.998227D+00   -0.245046D+01    0.536965D-02
   0   238    0.139469D-01    0.997534D+00    0.658670D+01    0.661966D-02
   0   239    0.143777D-01    0.998889D+00    0.260617D+01    0.322155D-02
   0   240    0.144031D-01    0.998900D+00   -0.759661D+00    0.343660D-02
   0   241    0.145666D-01    0.998060D+00   -0.812959D+01    0.500096D-02
   0   242    0.139680D-01    0.997986D+00    0.624765D+01    0.638625D-02
   0   243    0.143262D-01    0.998105D+00   -0.733267D+01    0.510266D-02
   0   244    0.142533D-01    0.999053D+00   -0.138412D+01    0.316377D-02
   0   245    0.141455D-01    0.997975D+00   -0.514539D+01    0.538983D-02
   0   246    0.141244D-01    0.998678D+00    0.647216D+01    0.341402D-02
   0   247    0.141986D-01    0.999379D+00    0.146339D+01    0.223865D-02
   0   248    0.143411D-01    0.999014D+00   -0.702442D+00    0.319911D-02
   0   249    0.142530D-01    0.998400D+00   -0.203465D+01    0.391525D-02
   0   250    0.141555D-01    0.997491D+00    0.109188D+01    0.726128D-02
   0   251    0.142563D-01    0.998298D+00   -0.872043D+01    0.447617D-02
   0   252    0.139607D-01    0.999259D+00    0.311029D+01    0.200890D-02
   0   253    0.141826D-01    0.999677D+00    0.614738D+01    0.643812D-03
   0   254    0.139441D-01    0.999757D+00    0.115867D+00    0.136522D-02
   0   255    0.139184D-01    0.998881D+00    0.347418D+00    0.341296D-02
   0   256    0.141090D-01    0.999320D+00    0.782785D+01    0.214194D-02
   0   257    0.141762D-01    0.998575D+00    0.643774D+01    0.455545D-02
   0   258    0.138220D-01    0.998058D+00    0.519912D+01    0.533588D-02
   0   259    0.139441D-01    0.998917D+00   -0.106213D+01    0.364659D-02
   0   260    0.141497D-01    0.999307D+00    0.763730D+01    0.143075D-02
   0   261    0.138775D-01    0.999452D+00   -0.743081D+01    0.155035D-02
   0   262    0.138424D-01    0.999742D+00   -0.240261D+01    0.166258D-03
   0   263    0.140106D-01    0.999229D+00    0.630348D+01    0.183979D-02
   0   264    0.140036D-01    0.999304D+00    0.484353D+01    0.218263D-02
   0   265    0.139547D-01    0.998597D+00   -0.270799D+00    0.405940D-02
   0   266    0.139239D-01    0.998860D+00   -0.178817D+01    0.375370D-02
   0   267    0.138277D-01    0.998984D+00   -0.818549D+01    0.337228D-02
   0   268    0.136166D-01    0.998974D+00   -0.492619D+01    0.262008D-02
   0   269    0.134777D-01    0.998717D+00   -0.560728D+01    0.315226D-02
   0   270    0.137741D-01    0.998182D+00    0.808776D+00    0.494813D-02
   0   271    0.136147D-01    0.999190D+00   -0.729376D+00    0.217270D-02
   0   272    0.136156D-01    0.999355D+00   -0.507960D+01    0.161443D-02
   0   273    0.132336D-01    0.100029D+01    0.566140D+01   -0.985204D-03
   0   274    0.133583D-01    0.999021D+00   -0.738401D+01    0.252740D-02
   0   275    0.134164D-01    0.999917D+00   -0.563741D+01    0.623571D-03
   0   276    0.134676D-01    0.999716D+00   -0.714500D+00    0.757943D-03
   0   277    0.134155D-01    0.999125D+00   -0.276553D+01    0.289259D-02
   0   278    0.131137D-01    0.100029D+01    0.195038D+00   -0.126215D-02
   0   279    0.130094D-01    0.100074D+01   -0.264570D+01   -0.190192D-02
   0   280    0.132626D-01    0.100035D+01   -0.705727D+01   -0.123153D-02
   0   281    0.135094D-01    0.100007D+01    0.162251D+01   -0.298938D-03
   0   282    0.135402D-01    0.999995D+00   -0.699634D+00   -0.376439D-03
   0   283    0.133579D-01    0.100119D+01   -0.845670D+01   -0.307242D-02
   0   284    0.133611D-01    0.100108D+01    0.445337D+01   -0.342052D-02
   0   285    0.129361D-01    0.100107D+01   -0.436105D+01   -0.332238D-02
   0   286    0.128964D-01    0.999960D+00    0.418621D+01    0.574340D-03
   0   287    0.130569D-01    0.100002D+01   -0.501476D+01    0.278964D-04
   0   288    0.130023D-01    0.100129D+01    0.163894D+01   -0.393145D-02
   0   289    0.132067D-01    0.100173D+01    0.369371D+01   -0.421805D-02
   0   290    0.130692D-01    0.100083D+01    0.870620D+01   -0.288871D-02
   0   291    0.133147D-01    0.100104D+01   -0.757386D+01   -0.328178D-02
   0   292    0.132741D-01    0.100191D+01    0.681766D+01   -0.504293D-02
   0   293    0.134968D-01    0.100076D+01    0.515270D+01   -0.265939D-02
   0   294    0.137101D-01    0.100077D+01    0.845947D+00   -0.172346D-02
   0   295    0.132585D-01    0.100050D+01    0.649078D+01   -0.642624D-03
   0   296    0.128266D-01    0.100088D+01    0.379973D+01   -0.238269D-02
   0   297    0.134465D-01    0.100103D+01    0.232372D+01   -0.315375D-02
   0   298    0.135583D-01    0.100052D+01   -0.170738D+00   -0.126507D-02
   0   299    0.134059D-01    0.999015D+00   -0.822338D+01    0.280634D-02
   0   300    0.129365D-01    0.999319D+00    0.622600D+01    0.186479D-02
   0   301    0.132910D-01    0.100019D+01    0.464962D+01   -0.213974D-03
   0   302    0.134892D-01    0.999560D+00    0.224385D+01    0.139027D-02
   0   303    0.134890D-01    0.998814D+00   -0.151400D+01    0.349222D-02
   0   304    0.136175D-01    0.999492D+00    0.361222D+00    0.200974D-02
   0   305    0.135933D-01    0.100019D+01   -0.832148D+01   -0.949096D-03
   0   306    0.136938D-01    0.100010D+01    0.647074D-02   -0.612114D-03
   0   307    0.132245D-01    0.999611D+00    0.959782D+00    0.435697D-03
   0   308    0.134604D-01    0.999611D+00    0.563367D+01    0.976413D-03
   0   309    0.139158D-01    0.999515D+00    0.577765D+01    0.986325D-03
   0   310    0.134761D-01    0.998427D+00   -0.159096D+01    0.454388D-02
   0   311    0.134937D-01    0.998741D+00    0.440833D+01    0.298606D-02
   0   312    0.133677D-01    0.999137D+00    0.553832D+01    0.244192D-02
   0   313    0.133731D-01    0.999359D+00   -0.516201D+01    0.222681D-02
   0   314    0.134913D-01    0.999296D+00    0.614783D+01    0.228308D-02
   0   315    0.135682D-01    0.999776D+00   -0.652499D+00    0.477970D-03
   0   316    0.136011D-01    0.999348D+00    0.182988D+01    0.207369D-02
   0   317    0.136860D-01    0.998420D+00   -0.159233D+01    0.395558D-02
   0   318    0.138882D-01    0.998506D+00    0.119478D+01    0.477911D-02
   0   319    0.137245D-01    0.998848D+00    0.568782D+01    0.388134D-02
   0   320    0.136353D-01    0.998378D+00   -0.580869D+01    0.387741D-02
   0   321    0.138376D-01    0.998169D+00   -0.362432D+01    0.541058D-02
   0   322    0.139602D-01    0.998413D+00   -0.635959D+01    0.432001D-02
   0   323    0.138051D-01    0.998556D+00    0.444557D+01    0.474415D-02
   0   324    0.138379D-01    0.998672D+00   -0.687629D+01    0.447526D-02
   0   325    0.138568D-01    0.997702D+00   -0.355177D+01    0.631825D-02
   0   326    0.137309D-01    0.998771D+00   -0.590285D+01    0.340766D-02
   0   327    0.139962D-01    0.998419D+00    0.389788D+01    0.518127D-02
   0   328    0.138051D-01    0.999528D+00    0.704551D+01    0.157716D-02
   0   329    0.142412D-01    0.999237D+00    0.117275D+01    0.152907D-02
   0   330    0.138438D-01    0.100035D+01    0.314359D+01   -0.552208D-03
   0   331    0.138841D-01    0.100005D+01   -0.231244D+01    0.132768D-03
   0   332    0.137987D-01    0.998531D+00   -0.753586D+01    0.384493D-02
   0   333    0.135820D-01    0.998721D+00    0.153216D+01    0.418769D-02
   0   334    0.136789D-01    0.998515D+00    0.473435D+01    0.369299D-02
   0   335    0.139800D-01    0.998436D+00   -0.722819D+01    0.426771D-02
   0   336    0.140367D-01    0.998850D+00   -0.495748D+01    0.350978D-02
   0   337    0.140964D-01    0.998155D+00   -0.703519D+01    0.608264D-02
   0   338    0.138854D-01    0.997331D+00    0.784640D+01    0.712963D-02
   0   339    0.139367D-01    0.997790D+00    0.814474D+01    0.603535D-02
   0   340    0.142533D-01    0.998414D+00   -0.396571D+01    0.499581D-02
   0   341    0.144226D-01    0.997672D+00    0.219106D+01    0.626041D-02
   0   342    0.147801D-01    0.997400D+00    0.295999D+01    0.755023D-02
   0   343    0.145423D-01    0.998188D+00   -0.272109D+01    0.554303D-02
   0   344    0.146071D-01    0.998201D+00    0.236050D+00    0.550478D-02
   0   345    0.146104D-01    0.998293D+00   -0.635062D+01    0.541133D-02
   0   346    0.148006D-01    0.998226D+00    0.570135D+01    0.477521D-02
   0   347    0.148420D-01    0.997864D+00   -0.113268D+01    0.616405D-02
   0   348    0.150153D-01    0.998242D+00    0.473249D+01    0.475842D-02
   0   349    0.144586D-01    0.999107D+00    0.375610D+01    0.209800D-02
   0   350    0.144689D-01    0.999391D+00    0.198430D+01    0.186301D-02
   0   351    0.142713D-01    0.999504D+00   -0.598570D+01    0.192852D-02
   0   352    0.143100D-01    0.998424D+00   -0.323373D+01    0.494940D-02
   0   353    0.139146D-01    0.998993D+00   -0.596239D+01    0.345852D-02
   0   354    0.137779D-01    0.998464D+00   -0.173301D+01    0.483259D-02
   0   355    0.138573D-01    0.999704D+00    0.737521D+01    0.105307D-02
   0   356    0.139535D-01    0.998484D+00   -0.345209D+01    0.423932D-02
   0   357    0.138280D-01    0.998098D+00    0.322838D+01    0.493596D-02
   0   358    0.134468D-01    0.998437D+00    0.572847D+01    0.442663D-02
   0   359    0.136588D-01    0.998633D+00   -0.765689D+01    0.447998D-02
   0   360    0.138306D-01    0.998039D+00    0.219840D+01    0.602766D-02
   0   361    0.137575D-01    0.998053D+00   -0.549402D+01    0.600671D-02
   0   362    0.143981D-01    0.996860D+00   -0.102653D+01    0.866636D-02
   0   363    0.148673D-01    0.997246D+00    0.369525D+01    0.858382D-02
   0   364    0.151001D-01    0.995331D+00   -0.542993D+01    0.130685D-01
   0   365    0.153026D-01    0.994775D+00   -0.736717D+01    0.151847D-01
   0   366    0.159442D-01    0.992534D+00    0.184908D+01    0.217647D-01
   0   367    0.171704D-01    0.988665D+00    0.517215D+01    0.329792D-01
   0   368    0.192405D-01    0.981758D+00   -0.775562D+00    0.518349D-01
   0   369    0.217475D-01    0.971869D+00   -0.653398D+01    0.792848D-01
   0   370    0.249067D-01    0.954378D+00   -0.625001D+01    0.122788D+00
   0   371    0.273868D-01    0.929221D+00    0.615361D+01    0.177469D+00
   0   372    0.271993D-01    0.890566D+00   -0.105718D+02    0.238228D+00
   0   373    0.229600D-01    0.831215D+00    0.159517D+02    0.296849D+00
   0   374    0.147863D-01    0.748094D+00    0.126499D+02    0.341972D+00
   0   375    0.784608D-02    0.645107D+00   -0.115983D+00    0.371434D+00
   0   376    0.359908D-02    0.535440D+00    0.185399D+01    0.389329D+00
   0   377    0.145025D-02    0.429331D+00    0.858948D+00    0.400348D+00
   0   378    0.554435D-03    0.334074D+00    0.583609D+00    0.407328D+00
   0   379    0.195444D-03    0.253313D+00    0.502611D-01    0.411879D+00
   0   380    0.652578D-04    0.187840D+00    0.695016D-01    0.414915D+00
   0   381    0.220837D-04    0.136606D+00    0.744878D-02    0.416975D+00
   0   382    0.703082D-05    0.976712D-01    0.305523D-02    0.418386D+00
   0   383    0.217611D-05    0.687988D-01    0.189264D-02    0.419357D+00
   0   384    0.661077D-06    0.478300D-01    0.416025D-03    0.420026D+00
   0   385    0.203168D-06    0.328714D-01    0.246180D-04    0.420485D+00
   0   386    0.626169D-07    0.223641D-01    0.243040D-04    0.420800D+00
   0   387    0.180108D-07    0.150817D-01    0.865950D-05    0.421014D+00
   0   388    0.522836D-08    0.100923D-01    0.352293D-05    0.421158D+00
   0   389    0.153187D-08    0.670813D-02    0.177785D-05    0.421256D+00
   0   390    0.442982D-09    0.443241D-02    0.181727D-06    0.421321D+00
   0   391    0.136410D-09    0.291344D-02    0.665979D-07    0.421364D+00
   0   392    0.414539D-10    0.190596D-02    0.249393D-07    0.421393D+00
   0   393    0.126247D-10    0.124118D-02    0.658107D-08    0.421412D+00
   0   394    0.393499D-11    0.804191D-03    0.758990D-09    0.421424D+00
   0   395    0.114037D-11    0.517389D-03    0.429113D-09    0.421432D+00
   0   396    0.328435D-12    0.328656D-03    0.114046D-09    0.421438D+00
   0   397    0.958854D-13    0.202991D-03    0.367091D-10    0.421441D+00