variables =  "IG"  "JG"  "PHI"  "Temp."  "Latent_heat"  "mm"
ZONE  I=  401  J=  101
   0     0    0.100000D+01    0.610716D+00    0.000000D+00    0.377972D+00
   0     1    0.100000D+01    0.610716D+00    0.000000D+00    0.377972D+00
   0     2    0.100000D+01    0.613753D+00    0.000000D+00    0.377429D+00
   0     3    0.100000D+01    0.619773D+00    0.000000D+00    0.376330D+00
   0     4    0.100000D+01    0.628668D+00    0.000000D+00    0.374644D+00
   0     5    0.100000D+01    0.640279D+00    0.000000D+00    0.372327D+00
   0     6    0.100000D+01    0.654404D+00    0.000000D+00    0.369315D+00
   0     7    0.100000D+01    0.670801D+00    0.000000D+00    0.365520D+00
   0     8    0.100000D+01    0.689193D+00    0.000000D+00    0.360828D+00
   0     9    0.100000D+01    0.709282D+00    0.666134D-10    0.355094D+00
   0    10    0.100000D+01    0.730751D+00    0.479616D-09    0.348128D+00
   0    11    0.100000D+01    0.753277D+00    0.511591D-08    0.339686D+00
   0    12    0.100000D+01    0.776538D+00    0.714095D-07    0.329458D+00
   0    13    0.100000D+01    0.800222D+00    0.353784D-06    0.317047D+00
   0    14    0.100000D+01    0.824038D+00    0.856382D-06    0.301947D+00
   0    15    0.100000D+01    0.847730D+00   -0.228315D-04    0.283523D+00
   0    16    0.100000D+01    0.871090D+00    0.340700D-04    0.260978D+00
   0    17    0.999996D+00    0.893986D+00   -0.100715D-02    0.233343D+00
   0    18    0.999968D+00    0.916397D+00    0.212706D-01    0.199458D+00
   0    19    0.999765D+00    0.938482D+00    0.113588D+00    0.157961D+00
   0    20    0.998307D+00    0.960697D+00    0.416115D+00    0.107232D+00
   0    21    0.988732D+00    0.983766D+00    0.765378D+01    0.460239D-01
   0    22    0.928993D+00    0.100831D+01    0.390195D+02   -0.235049D-01
   0    23    0.642581D+00    0.102990D+01    0.925025D+02   -0.801503D-01
   0    24    0.191545D+00    0.102946D+01    0.430758D+02   -0.823618D-01
   0    25    0.595682D-01    0.101710D+01   -0.116519D+02   -0.503700D-01
   0    26    0.267877D-01    0.100535D+01   -0.652632D+01   -0.142292D-01
   0    27    0.173854D-01    0.994227D+00   -0.716123D+01    0.170368D-01
   0    28    0.145541D-01    0.986042D+00    0.150435D+01    0.400955D-01
   0    29    0.136957D-01    0.974901D+00   -0.446811D+01    0.700746D-01
   0    30    0.134983D-01    0.959758D+00   -0.662689D+01    0.109685D+00
   0    31    0.151719D-01    0.937235D+00   -0.297342D+01    0.160815D+00
   0    32    0.173851D-01    0.907940D+00   -0.660140D+01    0.213214D+00
   0    33    0.187405D-01    0.867700D+00   -0.372743D+01    0.264935D+00
   0    34    0.164032D-01    0.810236D+00   -0.256324D+01    0.311206D+00
   0    35    0.110725D-01    0.733302D+00    0.691266D+01    0.347348D+00
   0    36    0.649643D-02    0.640214D+00    0.185256D+01    0.372443D+00
   0    37    0.312090D-02    0.539120D+00    0.439380D+00    0.388858D+00
   0    38    0.135946D-02    0.439581D+00    0.805703D+00    0.399457D+00
   0    39    0.543790D-03    0.348243D+00    0.747782D-01    0.406414D+00
   0    40    0.193311D-03    0.268897D+00    0.141920D+00    0.411076D+00
   0    41    0.685220D-04    0.203005D+00    0.599306D-01    0.414255D+00
   0    42    0.227778D-04    0.150228D+00    0.203885D-01    0.416451D+00
   0    43    0.771384D-05    0.109220D+00    0.561595D-02    0.417980D+00
   0    44    0.243426D-05    0.781628D-01    0.646863D-03    0.419049D+00
   0    45    0.792763D-06    0.551560D-01    0.522217D-03    0.419795D+00
   0    46    0.254121D-06    0.384355D-01    0.455121D-04    0.420316D+00
   0    47    0.759395D-07    0.264846D-01    0.342773D-04    0.420677D+00
   0    48    0.237253D-07    0.180667D-01    0.156273D-04    0.420926D+00
   0    49    0.696148D-08    0.122128D-01    0.463510D-05    0.421097D+00
   0    50    0.205066D-08    0.818798D-02    0.235211D-05    0.421213D+00
   0    51    0.628897D-09    0.544836D-02    0.277114D-06    0.421292D+00
   0    52    0.195696D-09    0.360028D-02    0.778090D-07    0.421345D+00
   0    53    0.606613D-10    0.236371D-02    0.668095D-07    0.421380D+00
   0    54    0.195484D-10    0.154242D-02    0.104439D-07    0.421403D+00
   0    55    0.602262D-11    0.100066D-02    0.247460D-08    0.421419D+00
   0    56    0.182315D-11    0.645575D-03    0.471392D-09    0.421429D+00
   0    57    0.550692D-12    0.414237D-03    0.131901D-09    0.421435D+00
   0    58    0.166136D-12    0.264389D-03    0.156125D-09    0.421440D+00
   0    59    0.488944D-13    0.167866D-03    0.261254D-10    0.421442D+00
   0    60    0.141172D-13    0.106030D-03    0.178397D-10    0.421444D+00
   0    61    0.408254D-14    0.666263D-04    0.721943D-12    0.421445D+00
   0    62    0.114274D-14    0.416501D-04    0.271540D-12    0.421446D+00
   0    63    0.325703D-15    0.259021D-04    0.405338D-12    0.421446D+00
   0    64    0.912150D-16    0.160248D-04    0.113600D-12    0.421447D+00
   0    65    0.246436D-16    0.986218D-05    0.191433D-13    0.421447D+00
   0    66    0.679793D-17    0.603762D-05    0.798029D-14    0.421447D+00
   0    67    0.184229D-17    0.367665D-05    0.219377D-14    0.421447D+00
   0    68    0.494754D-18    0.222699D-05    0.268559D-15    0.421447D+00
   0    69    0.136323D-18    0.134167D-05    0.102488D-15    0.421447D+00
   0    70    0.352227D-19    0.803936D-06    0.447303D-16    0.421447D+00
   0    71    0.920152D-20    0.479102D-06    0.395595D-17    0.421447D+00
   0    72    0.247828D-20    0.283956D-06    0.296271D-17    0.421447D+00
   0    73    0.624890D-21    0.167371D-06    0.886469D-18    0.421447D+00
   0    74    0.162908D-21    0.981070D-07    0.187522D-18    0.421447D+00
   0    75    0.418009D-22    0.571874D-07    0.205646D-19    0.421447D+00
   0    76    0.105206D-22    0.331491D-07    0.121455D-19    0.421447D+00
   0    77    0.259645D-23    0.191075D-07    0.125412D-20    0.421447D+00
   0    78    0.641132D-24    0.109519D-07    0.793234D-21    0.421447D+00
   0    79    0.162091D-24    0.624200D-08    0.215462D-21    0.421447D+00
   0    80    0.395417D-25    0.353750D-08    0.249021D-22    0.421447D+00
   0    81    0.974195D-26    0.199345D-08    0.137696D-22    0.421447D+00
   0    82    0.240174D-26    0.111697D-08    0.165041D-23    0.421447D+00
   0    83    0.594346D-27    0.622310D-09    0.244146D-24    0.421447D+00
   0    84    0.145699D-27    0.344742D-09    0.181539D-24    0.421447D+00
   0    85    0.352223D-28    0.189890D-09    0.432432D-25    0.421447D+00
   0    86    0.833545D-29    0.103999D-09    0.427672D-26    0.421447D+00
   0    87    0.195665D-29    0.566338D-10    0.289153D-26    0.421447D+00
   0    88    0.469656D-30    0.306646D-10    0.418982D-27    0.421447D+00
   0    89    0.111775D-30    0.165088D-10    0.141924D-27    0.421447D+00
   0    90    0.264844D-31    0.883710D-11    0.269449D-28    0.421447D+00
   0    91    0.618071D-32    0.470350D-11    0.333738D-29    0.421447D+00
   0    92    0.143270D-32    0.248915D-11    0.202786D-29    0.421447D+00
   0    93    0.326931D-33    0.130978D-11    0.365084D-30    0.421447D+00
   0    94    0.756795D-34    0.685278D-12    0.321576D-31    0.421447D+00
   0    95    0.175263D-34    0.356499D-12    0.192575D-31    0.421447D+00
   0    96    0.388927D-35    0.184405D-12    0.627049D-32    0.421447D+00
   0    97    0.882378D-36    0.948451D-13    0.815126D-33    0.421447D+00
   0    98    0.201323D-36    0.485049D-13    0.305054D-33    0.421447D+00
   0    99    0.453962D-37    0.246654D-13    0.194493D-34    0.421447D+00
   0   100    0.102445D-37    0.124717D-13    0.481254D-35    0.421447D+00
   0   101    0.225886D-38    0.627052D-14    0.137482D-35    0.421447D+00
   0   102    0.481541D-39    0.313488D-14    0.458171D-36    0.421447D+00
   0   103    0.107540D-39    0.155842D-14    0.128416D-36    0.421447D+00
   0   104    0.236276D-40    0.770365D-15    0.147197D-37    0.421447D+00
   0   105    0.505654D-41    0.378670D-15    0.819838D-38    0.421447D+00
   0   106    0.107147D-41    0.185090D-15    0.150686D-38    0.421447D+00
   0   107    0.224686D-42    0.899632D-16    0.169314D-39    0.421447D+00
   0   108    0.496344D-43    0.434823D-16    0.522188D-40    0.421447D+00
   0   109    0.107342D-43    0.208992D-16    0.577653D-41    0.421447D+00
   0   110    0.224167D-44    0.998896D-17    0.215638D-41    0.421447D+00
   0   111    0.475792D-45    0.474777D-17    0.753716D-42    0.421447D+00
   0   112    0.959330D-46    0.224410D-17    0.876090D-43    0.421447D+00
   0   113    0.204197D-46    0.105483D-17    0.296619D-43    0.421447D+00
   0   114    0.429941D-47    0.493080D-18    0.374926D-44    0.421447D+00
   0   115    0.877279D-48    0.229218D-18    0.903589D-45    0.421447D+00
   0   116    0.179857D-48    0.105970D-18    0.239818D-45    0.421447D+00
   0   117    0.350826D-49    0.487222D-19    0.293816D-46    0.421447D+00
   0   118    0.708922D-50    0.222783D-19    0.464894D-47    0.421447D+00
   0   119    0.143152D-50    0.101311D-19    0.121648D-47    0.421447D+00
   0   120    0.288470D-51    0.458200D-20    0.422404D-48    0.421447D+00
   0   121    0.559773D-52    0.206102D-20    0.891405D-49    0.421447D+00
   0   122    0.110484D-52    0.922030D-21    0.934401D-50    0.421447D+00
   0   123    0.224392D-53    0.410248D-21    0.261179D-50    0.421447D+00
   0   124    0.431735D-54    0.181549D-21    0.525171D-51    0.421447D+00
   0   125    0.833321D-55    0.799085D-22    0.821217D-52    0.421447D+00
   0   126    0.154859D-55    0.349823D-22    0.235300D-52    0.421447D+00
   0   127    0.302293D-56    0.152323D-22    0.567831D-53    0.421447D+00
   0   128    0.574912D-57    0.659708D-23    0.929776D-54    0.421447D+00
   0   129    0.106607D-57    0.284192D-23    0.209380D-54    0.421447D+00
   0   130    0.197451D-58    0.121773D-23    0.256874D-55    0.421447D+00
   0   131    0.365582D-59    0.519009D-24    0.403142D-56    0.421447D+00
   0   132    0.671197D-60    0.220035D-24    0.912545D-57    0.421447D+00
   0   133    0.124053D-60    0.927905D-25    0.179848D-57    0.421447D+00
   0   134    0.219963D-61    0.389242D-25    0.444854D-58    0.421447D+00
   0   135    0.387781D-62    0.162422D-25    0.386641D-59    0.421447D+00
   0   136    0.697400D-63    0.674191D-26    0.112202D-59    0.421447D+00
   0   137    0.123468D-63    0.278383D-26    0.232757D-60    0.421447D+00
   0   138    0.220826D-64    0.114348D-26    0.353729D-61    0.421447D+00
   0   139    0.386875D-65    0.467249D-27    0.538856D-62    0.421447D+00
   0   140    0.687478D-66    0.189936D-27    0.128897D-62    0.421447D+00
   0   141    0.117518D-66    0.768084D-28    0.225760D-63    0.421447D+00
   0   142    0.199126D-67    0.309003D-28    0.386222D-64    0.421447D+00
   0   143    0.336574D-68    0.123672D-28    0.466397D-65    0.421447D+00
   0   144    0.574628D-69    0.492430D-29    0.922082D-66    0.421447D+00
   0   145    0.988238D-70    0.195068D-29    0.153806D-66    0.421447D+00
   0   146    0.165646D-70    0.768782D-30    0.332971D-67    0.421447D+00
   0   147    0.274822D-71    0.301440D-30    0.595903D-68    0.421447D+00
   0   148    0.447758D-72    0.117594D-30    0.738796D-69    0.421447D+00
   0   149    0.726648D-73    0.456420D-31    0.148683D-69    0.421447D+00
   0   150    0.118790D-73    0.176255D-31    0.265109D-70    0.421447D+00
   0   151    0.190843D-74    0.677213D-32    0.415629D-71    0.421447D+00
   0   152    0.309235D-75    0.258893D-32    0.580018D-72    0.421447D+00
   0   153    0.485262D-76    0.984765D-33    0.702658D-73    0.421447D+00
   0   154    0.779610D-77    0.372708D-33    0.176979D-73    0.421447D+00
   0   155    0.123551D-77    0.140358D-33    0.188999D-74    0.421447D+00
   0   156    0.199892D-78    0.525943D-34    0.252968D-75    0.421447D+00
   0   157    0.307844D-79    0.196103D-34    0.594028D-76    0.421447D+00
   0   158    0.477729D-80    0.727574D-35    0.629950D-77    0.421447D+00
   0   159    0.735919D-81    0.268612D-35    0.109108D-77    0.421447D+00
   0   160    0.109824D-81    0.986812D-36    0.211711D-78    0.421447D+00
   0   161    0.171262D-82    0.360753D-36    0.295116D-79    0.421447D+00
   0   162    0.255637D-83    0.131238D-36    0.372737D-80    0.421447D+00
   0   163    0.379735D-84    0.475102D-37    0.712036D-81    0.421447D+00
   0   164    0.556058D-85    0.171159D-37    0.100611D-81    0.421447D+00
   0   165    0.858271D-86    0.613628D-38    0.133268D-82    0.421447D+00
   0   166    0.126775D-86    0.218931D-38    0.270366D-83    0.421447D+00
   0   167    0.185148D-87    0.777344D-39    0.398973D-84    0.421447D+00
   0   168    0.273802D-88    0.274681D-39    0.547740D-85    0.421447D+00
   0   169    0.396225D-89    0.965961D-40    0.755304D-86    0.421447D+00
   0   170    0.570974D-90    0.338075D-40    0.956949D-87    0.421447D+00
   0   171    0.814562D-91    0.117759D-40    0.224609D-87    0.421447D+00
   0   172    0.116091D-91    0.408234D-41    0.195581D-88    0.421447D+00
   0   173    0.160490D-92    0.140852D-41    0.333434D-89    0.421447D+00
   0   174    0.224956D-93    0.483689D-42    0.469568D-90    0.421447D+00
   0   175    0.314285D-94    0.165318D-42    0.835125D-91    0.421447D+00
   0   176    0.433671D-95    0.562382D-43    0.120742D-91    0.421447D+00
   0   177    0.593506D-96    0.190418D-43    0.144906D-92    0.421447D+00
   0   178    0.821118D-97    0.641732D-44    0.235112D-93    0.421447D+00
   0   179    0.115140D-97    0.215267D-44    0.230996D-94    0.421447D+00
   0   180    0.154336D-98    0.718757D-45    0.292603D-95    0.421447D+00
   0   181    0.207023D-99    0.238877D-45    0.382394D-96    0.421447D+00
   0   182    0.283360-100    0.790247D-46    0.725379D-97    0.421447D+00
   0   183    0.391072-101    0.260226D-46    0.961325D-98    0.421447D+00
   0   184    0.511969-102    0.852991D-47    0.111415D-98    0.421447D+00
   0   185    0.681563-103    0.278324D-47    0.190350D-99    0.421447D+00
   0   186    0.891185-104    0.904012D-48    0.268281-100    0.421447D+00
   0   187    0.117545-104    0.292295D-48    0.242652-101    0.421447D+00
   0   188    0.153387-105    0.940804D-49    0.384235-102    0.421447D+00
   0   189    0.196573-106    0.301448D-49    0.502037-103    0.421447D+00
   0   190    0.256114-107    0.961540D-50    0.644281-104    0.421447D+00
   0   191    0.327987-108    0.305330D-50    0.846931-105    0.421447D+00
   0   192    0.413352-109    0.965216D-51    0.112390-105    0.421447D+00
   0   193    0.515194-110    0.303766D-51    0.126439-106    0.421447D+00
   0   194    0.649002-111    0.951738D-52    0.185196-107    0.421447D+00
   0   195    0.831882-112    0.296870D-52    0.187843-108    0.421447D+00
   0   196    0.101026-112    0.921919D-53    0.232940-109    0.421447D+00
   0   197    0.126035-113    0.285037D-53    0.343465-110    0.421447D+00
   0   198    0.154626-114    0.877397D-54    0.504421-111    0.421447D+00
   0   199    0.192376-115    0.268897D-54    0.478872-112    0.421447D+00
   0   200    0.229638-116    0.820491D-55    0.700859-113    0.421447D+00
   0   201    0.278849-117    0.249268D-55    0.698298-114    0.421447D+00
   0   202    0.335300-118    0.754000D-56    0.104557-114    0.421447D+00
   0   203    0.397531-119    0.227086D-56    0.101422-115    0.421447D+00
   0   204    0.469931-120    0.680978D-57    0.122371-116    0.421447D+00
   0   205    0.574897-121    0.203330D-57    0.145543-117    0.421447D+00
   0   206    0.656984-122    0.604511D-58    0.209351-118    0.421447D+00
   0   207    0.767258-123    0.178956D-58    0.207648-119    0.421447D+00
   0   208    0.908272-124    0.527510D-59    0.223783-120    0.421447D+00
   0   209    0.105544-124    0.154834D-59    0.363502-121    0.421447D+00
   0   210    0.121191-125    0.452538D-60    0.399032-122    0.421447D+00
   0   211    0.138221-126    0.131706D-60    0.372523-123    0.421447D+00
   0   212    0.162772-127    0.381700D-61    0.417276-124    0.421447D+00
   0   213    0.189222-128    0.110157D-61    0.502751-125    0.421447D+00
   0   214    0.215863-129    0.316574D-62    0.536681-126    0.421447D+00
   0   215    0.239450-130    0.905990D-63    0.868569-127    0.421447D+00
   0   216    0.266723-131    0.258202D-63    0.967094-128    0.421447D+00
   0   217    0.302651-132    0.732804D-64    0.827754-129    0.421447D+00
   0   218    0.333629-133    0.207117D-64    0.910008-130    0.421447D+00
   0   219    0.357905-134    0.582971D-65    0.127129-130    0.421447D+00
   0   220    0.393439-135    0.163413D-65    0.103150-131    0.421447D+00
   0   221    0.436469-136    0.456187D-66    0.129057-132    0.421447D+00
   0   222    0.476724-137    0.126829D-66    0.164810-133    0.421447D+00
   0   223    0.515864-138    0.351171D-67    0.147501-134    0.421447D+00
   0   224    0.552019-139    0.968387D-68    0.187739-135    0.421447D+00
   0   225    0.600199-140    0.265959D-68    0.158915-136    0.421447D+00
   0   226    0.643307-141    0.727481D-69    0.192815-137    0.421447D+00
   0   227    0.680804-142    0.198187D-69    0.261844-138    0.421447D+00
   0   228    0.717726-143    0.537747D-70    0.278191-139    0.421447D+00
   0   229    0.763644-144    0.145324D-70    0.295116-140    0.421447D+00
   0   230    0.808084-145    0.391165D-71    0.311655-141    0.421447D+00
   0   231    0.837555-146    0.104869D-71    0.304646-142    0.421447D+00
   0   232    0.886314-147    0.280032D-72    0.264812-143    0.421447D+00
   0   233    0.925487-148    0.744806D-73    0.361793-144    0.421447D+00
   0   234    0.943609-149    0.197315D-73    0.321854-145    0.421447D+00
   0   235    0.959400-150    0.520673D-74    0.299303-146    0.421447D+00
   0   236    0.992525-151    0.136855D-74    0.324380-147    0.421447D+00
   0   237    0.100114-151    0.358305D-75    0.320095-148    0.421447D+00
   0   238    0.101094-152    0.934429D-76    0.380797-149    0.421447D+00
   0   239    0.103651-153    0.242743D-76    0.411377-150    0.421447D+00
   0   240    0.104697-154    0.628143D-77    0.418837-151    0.421447D+00
   0   241    0.106162-155    0.161915D-77    0.313121-152    0.421447D+00
   0   242    0.107156-156    0.415753D-78    0.319718-153    0.421447D+00
   0   243    0.105978-157    0.106343D-78    0.427826-154    0.421447D+00
   0   244    0.102353-158    0.270967D-79    0.334483-155    0.421447D+00
   0   245    0.101070-159    0.687793D-80    0.424309-156    0.421447D+00
   0   246    0.982031-161    0.173916D-80    0.320409-157    0.421447D+00
   0   247    0.977553-162    0.438093D-81    0.381088-158    0.421447D+00
   0   248    0.935043-163    0.109937D-81    0.329098-159    0.421447D+00
   0   249    0.894833-164    0.274836D-82    0.391532-160    0.421447D+00
   0   250    0.857027-165    0.684487D-83    0.281576-161    0.421447D+00
   0   251    0.829798-166    0.169832D-83    0.282531-162    0.421447D+00
   0   252    0.786528-167    0.419801D-84    0.321107-163    0.421447D+00
   0   253    0.754757-168    0.103381D-84    0.251228-164    0.421447D+00
   0   254    0.730571-169    0.253638D-85    0.313806-165    0.421447D+00
   0   255    0.695320-170    0.619972D-86    0.265464-166    0.421447D+00
   0   256    0.656926-171    0.150979D-86    0.224359-167    0.421447D+00
   0   257    0.588794-172    0.366313D-87    0.263740-168    0.421447D+00
   0   258    0.543261-173    0.885491D-88    0.190316-169    0.421447D+00
   0   259    0.492405-174    0.213264D-88    0.190177-170    0.421447D+00
   0   260    0.460349-175    0.511747D-89    0.206851-171    0.421447D+00
   0   261    0.423388-176    0.122350D-89    0.162223-172    0.421447D+00
   0   262    0.389858-177    0.291451D-90    0.173667-173    0.421447D+00
   0   263    0.352509-178    0.691744D-91    0.125960-174    0.421447D+00
   0   264    0.322559-179    0.163587D-91    0.139297-175    0.421447D+00
   0   265    0.296728-180    0.385461D-92    0.114866-176    0.421447D+00
   0   266    0.269188-181    0.904988D-93    0.104175-177    0.421447D+00
   0   267    0.239102-182    0.211710D-93    0.114388-178    0.421447D+00
   0   268    0.212277-183    0.493493D-94    0.929422-180    0.421447D+00
   0   269    0.191377-184    0.114621D-94    0.773523-181    0.421447D+00
   0   270    0.172105-185    0.265277D-95    0.665010-182    0.421447D+00
   0   271    0.151604-186    0.611767D-96    0.642831-183    0.421447D+00
   0   272    0.130877-187    0.140582D-96    0.579856-184    0.421447D+00
   0   273    0.113734-188    0.321912D-97    0.481704-185    0.421447D+00
   0   274    0.993948-190    0.734529D-98    0.382274-186    0.421447D+00
   0   275    0.874581-191    0.167014D-98    0.368480-187    0.421447D+00
   0   276    0.757089-192    0.378416D-99    0.327886-188    0.421447D+00
   0   277    0.639059-193    0.854408-100    0.278472-189    0.421447D+00
   0   278    0.554934-194    0.192240-100    0.225411-190    0.421447D+00
   0   279    0.476988-195    0.431032-101    0.194817-191    0.421447D+00
   0   280    0.412472-196    0.963089-102    0.164803-192    0.421447D+00
   0   281    0.353544-197    0.214446-102    0.154885-193    0.421447D+00
   0   282    0.297295-198    0.475849-103    0.118712-194    0.421447D+00
   0   283    0.252264-199    0.105226-103    0.105767-195    0.421447D+00
   0   284    0.209841-200    0.231892-104    0.105703-196    0.421447D+00
   0   285    0.173807-201    0.509282-105    0.742280-198    0.421447D+00
   0   286    0.148840-202    0.111467-105    0.675539-199    0.421447D+00
   0   287    0.123119-203    0.243139-106    0.552898-200    0.421447D+00
   0   288    0.102701-204    0.528548-107    0.496382-201    0.421447D+00
   0   289    0.845466-206    0.114510-107    0.360941-202    0.421447D+00
   0   290    0.679462-207    0.247247-108    0.323052-203    0.421447D+00
   0   291    0.554186-208    0.532054-109    0.242739-204    0.421447D+00
   0   292    0.456336-209    0.114109-109    0.209826-205    0.421447D+00
   0   293    0.377194-210    0.243907-110    0.149444-206    0.421447D+00
   0   294    0.294047-211    0.519608-111    0.154344-207    0.421447D+00
   0   295    0.235287-212    0.110326-111    0.118692-208    0.421447D+00
   0   296    0.191236-213    0.233472-112    0.844980-210    0.421447D+00
   0   297    0.153232-214    0.492437-113    0.765874-211    0.421447D+00
   0   298    0.123887-215    0.103521-113    0.645093-212    0.421447D+00
   0   299    0.100210-216    0.216905-114    0.460672-213    0.421447D+00
   0   300    0.790697-218    0.452982-115    0.357206-214    0.421447D+00
   0   301    0.624879-219    0.942899-116    0.326956-215    0.421447D+00
   0   302    0.491476-220    0.195626-116    0.211592-216    0.421447D+00
   0   303    0.382853-221    0.404546-117    0.212490-217    0.421447D+00
   0   304    0.301717-222    0.833862-118    0.137459-218    0.421447D+00
   0   305    0.230997-223    0.171320-118    0.111151-219    0.421447D+00
   0   306    0.180558-224    0.350843-119    0.956469-221    0.421447D+00
   0   307    0.140888-225    0.716165-120    0.696759-222    0.421447D+00
   0   308    0.111597-226    0.145717-120    0.598810-223    0.421447D+00
   0   309    0.855518-228    0.295537-121    0.439499-224    0.421447D+00
   0   310    0.653835-229    0.597474-122    0.354625-225    0.421447D+00
   0   311    0.493226-230    0.120402-122    0.266611-226    0.421447D+00
   0   312    0.371954-231    0.241860-123    0.201194-227    0.421447D+00
   0   313    0.280316-232    0.484295-124    0.152017-228    0.421447D+00
   0   314    0.212608-233    0.966663-125    0.119731-229    0.421447D+00
   0   315    0.157806-234    0.192337-125    0.788617-231    0.421447D+00
   0   316    0.116659-235    0.381487-126    0.688951-232    0.421447D+00
   0   317    0.890792-237    0.754267-127    0.487946-233    0.421447D+00
   0   318    0.660350-238    0.148664-127    0.339444-234    0.421447D+00
   0   319    0.481961-239    0.292094-128    0.278557-235    0.421447D+00
   0   320    0.359279-240    0.572110-129    0.193918-236    0.421447D+00
   0   321    0.267175-241    0.111707-129    0.133966-237    0.421447D+00
   0   322    0.196221-242    0.217435-130    0.111887-238    0.421447D+00
   0   323    0.142363-243    0.421920-131    0.740962-240    0.421447D+00
   0   324    0.103718-244    0.816176-132    0.588522-241    0.421447D+00
   0   325    0.762042-246    0.157397-132    0.433701-242    0.421447D+00
   0   326    0.543340-247    0.302599-133    0.328790-243    0.421447D+00
   0   327    0.392789-248    0.579967-134    0.194610-244    0.421447D+00
   0   328    0.279621-249    0.110817-134    0.167270-245    0.421447D+00
   0   329    0.203728-250    0.211097-135    0.107501-246    0.421447D+00
   0   330    0.146274-251    0.400894-136    0.828079-248    0.421447D+00
   0   331    0.104663-252    0.759023-137    0.559419-249    0.421447D+00
   0   332    0.744508-254    0.143272-137    0.388965-250    0.421447D+00
   0   333    0.532066-255    0.269618-138    0.313705-251    0.421447D+00
   0   334    0.374185-256    0.505854-139    0.187847-252    0.421447D+00
   0   335    0.261877-257    0.946218-140    0.159842-253    0.421447D+00
   0   336    0.184239-258    0.176462-140    0.100034-254    0.421447D+00
   0   337    0.128056-259    0.328099-141    0.668803-256    0.421447D+00
   0   338    0.912218-261    0.608219-142    0.516766-257    0.421447D+00
   0   339    0.630575-262    0.112413-142    0.394773-258    0.421447D+00
   0   340    0.431661-263    0.207148-143    0.255911-259    0.421447D+00
   0   341    0.297683-264    0.380585-144    0.170951-260    0.421447D+00
   0   342    0.205273-265    0.697165-145    0.126803-261    0.421447D+00
   0   343    0.141057-266    0.127331-145    0.794196-263    0.421447D+00
   0   344    0.952814-268    0.231873-146    0.542187-264    0.421447D+00
   0   345    0.662536-269    0.421005-147    0.357169-265    0.421447D+00
   0   346    0.448136-270    0.762165-148    0.291002-266    0.421447D+00
   0   347    0.307320-271    0.137574-148    0.178984-267    0.421447D+00
   0   348    0.206361-272    0.247603-149    0.120693-268    0.421447D+00
   0   349    0.139949-273    0.444332-150    0.900339-270    0.421447D+00
   0   350    0.934542-275    0.795051-151    0.531214-271    0.421447D+00
   0   351    0.638250-276    0.141847-151    0.384504-272    0.421447D+00
   0   352    0.429102-277    0.252342-152    0.233642-273    0.421447D+00
   0   353    0.283302-278    0.447613-153    0.164223-274    0.421447D+00
   0   354    0.185982-279    0.791706-154    0.106959-275    0.421447D+00
   0   355    0.121839-280    0.139629-154    0.676611-277    0.421447D+00
   0   356    0.798379-282    0.245551-155    0.528728-278    0.421447D+00
   0   357    0.518916-283    0.430589-156    0.338007-279    0.421447D+00
   0   358    0.344079-284    0.752911-157    0.201386-280    0.421447D+00
   0   359    0.226987-285    0.131277-157    0.132375-281    0.421447D+00
   0   360    0.146739-286    0.228242-158    0.877204-283    0.421447D+00
   0   361    0.955917-288    0.395705-159    0.575205-284    0.421447D+00
   0   362    0.626277-289    0.684098-160    0.397331-285    0.421447D+00
   0   363    0.405517-290    0.117934-160    0.228042-286    0.421447D+00
   0   364    0.263325-291    0.202738-161    0.150461-287    0.421447D+00
   0   365    0.168291-292    0.347545-162    0.106614-288    0.421447D+00
   0   366    0.107338-293    0.594112-163    0.656443-290    0.421447D+00
   0   367    0.674165-295    0.101277-163    0.405110-291    0.421447D+00
   0   368    0.431892-296    0.172163-164    0.288800-292    0.421447D+00
   0   369    0.271530-297    0.291849-165    0.172484-293    0.421447D+00
   0   370    0.171316-298    0.493368-166    0.110075-294    0.421447D+00
   0   371    0.108564-299    0.831722-167    0.756292-296    0.421447D+00
   0   372    0.686856-301    0.139825-167    0.468506-297    0.421447D+00
   0   373    0.432974-302    0.234418-168    0.269944-298    0.421447D+00
   0   374    0.266984-303    0.391923-169    0.176626-299    0.421447D+00
   0   375    0.169738-304    0.653457-170    0.113777-300    0.421447D+00
   0   376    0.103538-305    0.108653-170    0.659409-302    0.421447D+00
   0   377    0.650349-307    0.180169-171    0.448721-303    0.421447D+00
   0   378    0.399373-308    0.297941-172    0.261623-304    0.421447D+00
   0   379    0.245012-309    0.491357-173    0.157898-305    0.421447D+00
   0   380    0.147247-310    0.808136-174    0.939206-307    0.421447D+00
   0   381    0.904360-312    0.132554-174    0.626236-308    0.421447D+00
   0   382    0.562431-313    0.216833-175    0.389454-309    0.421447D+00
   0   383    0.340345-314    0.353742-176    0.240164-310    0.421447D+00
   0   384    0.205450-315    0.575541-177    0.127826-311    0.421447D+00
   0   385    0.123586-316    0.933896-178    0.888078-313    0.421447D+00
   0   386    0.746271-318    0.151132-178    0.515162-314    0.421447D+00
   0   387    0.443276-319    0.243921-179    0.331024-315    0.421447D+00
   0   388    0.228752-320    0.392630-180    0.217389-316    0.421447D+00
   0   389    0.000000D+00    0.630318-181    0.000000D+00    0.421447D+00
   0   390    0.000000D+00    0.100921-181    0.000000D+00    0.421447D+00
   0   391    0.000000D+00    0.161157-182    0.000000D+00    0.421447D+00
   0   392    0.000000D+00    0.256665-183    0.000000D+00    0.421447D+00
   0   393    0.000000D+00    0.407696-184    0.000000D+00    0.421447D+00
   0   394    0.000000D+00    0.645893-185    0.000000D+00    0.421447D+00
   0   395    0.000000D+00    0.102057-185    0.000000D+00    0.421447D+00
   0   396    0.000000D+00    0.160836-186    0.000000D+00    0.421447D+00
   0   397    0.000000D+00    0.252802-187    0.000000D+00    0.421447D+00