variables =  "IG"  "JG"  "PHI"  "Temp."  "Latent_heat"  "mm"
ZONE  I=  401  J=  101
   0     0    0.100000D+01    0.935713D+00    0.000000D+00    0.163680D+00
   0     1    0.100000D+01    0.935713D+00    0.000000D+00    0.163680D+00
   0     2    0.100000D+01    0.935827D+00    0.000000D+00    0.163450D+00
   0     3    0.100000D+01    0.936054D+00    0.000000D+00    0.162989D+00
   0     4    0.100000D+01    0.936394D+00    0.000000D+00    0.162297D+00
   0     5    0.100000D+01    0.936846D+00    0.000000D+00    0.161373D+00
   0     6    0.100000D+01    0.937409D+00    0.000000D+00    0.160216D+00
   0     7    0.100000D+01    0.938083D+00    0.000000D+00    0.158824D+00
   0     8    0.100000D+01    0.938866D+00    0.000000D+00    0.157197D+00
   0     9    0.100000D+01    0.939757D+00    0.000000D+00    0.155332D+00
   0    10    0.100000D+01    0.940754D+00    0.000000D+00    0.153227D+00
   0    11    0.100000D+01    0.941856D+00    0.000000D+00    0.150880D+00
   0    12    0.100000D+01    0.943059D+00    0.000000D+00    0.148289D+00
   0    13    0.100000D+01    0.944364D+00    0.000000D+00    0.145452D+00
   0    14    0.100000D+01    0.945766D+00    0.000000D+00    0.142365D+00
   0    15    0.100000D+01    0.947265D+00    0.000000D+00    0.139027D+00
   0    16    0.100000D+01    0.948857D+00    0.000000D+00    0.135434D+00
   0    17    0.100000D+01    0.950541D+00    0.000000D+00    0.131584D+00
   0    18    0.100000D+01    0.952314D+00    0.000000D+00    0.127474D+00
   0    19    0.100000D+01    0.954175D+00    0.000000D+00    0.123101D+00
   0    20    0.100000D+01    0.956120D+00    0.000000D+00    0.118461D+00
   0    21    0.100000D+01    0.958148D+00    0.000000D+00    0.113553D+00
   0    22    0.100000D+01    0.960258D+00    0.000000D+00    0.108371D+00
   0    23    0.100000D+01    0.962448D+00    0.000000D+00    0.102912D+00
   0    24    0.100000D+01    0.964717D+00    0.000000D+00    0.971727D-01
   0    25    0.100000D+01    0.967065D+00   -0.133227D-10    0.911475D-01
   0    26    0.100000D+01    0.969492D+00   -0.666134D-10    0.848314D-01
   0    27    0.100000D+01    0.971998D+00   -0.293099D-09    0.782184D-01
   0    28    0.100000D+01    0.974584D+00    0.222489D-08    0.713019D-01
   0    29    0.100000D+01    0.977254D+00    0.367173D-07    0.640742D-01
   0    30    0.100000D+01    0.980009D+00    0.108433D-06    0.565262D-01
   0    31    0.100000D+01    0.982854D+00   -0.840474D-06    0.486472D-01
   0    32    0.100000D+01    0.985795D+00    0.288508D-05    0.404238D-01
   0    33    0.100000D+01    0.988840D+00   -0.302035D-04    0.318390D-01
   0    34    0.999999D+00    0.992000D+00   -0.472998D-04    0.228690D-01
   0    35    0.999996D+00    0.995291D+00    0.244174D-02    0.134770D-01
   0    36    0.999974D+00    0.998743D+00    0.375406D-02    0.359662D-02
   0    37    0.999843D+00    0.100241D+01   -0.455365D-01   -0.690081D-02
   0    38    0.999010D+00    0.100639D+01   -0.221427D+00   -0.182897D-01
   0    39    0.994106D+00    0.101085D+01   -0.104208D+00   -0.310360D-01
   0    40    0.965181D+00    0.101647D+01    0.897606D+01   -0.465275D-01
   0    41    0.809891D+00    0.102384D+01   -0.867069D+02   -0.662286D-01
   0    42    0.281324D+00    0.103076D+01    0.100376D+02   -0.884079D-01
   0    43    0.662301D-01    0.102378D+01   -0.932889D+01   -0.667453D-01
   0    44    0.195717D-01    0.102074D+01    0.276910D+00   -0.581112D-01
   0    45    0.899826D-02    0.101718D+01    0.354826D+01   -0.490530D-01
   0    46    0.755399D-02    0.101450D+01    0.440048D+01   -0.415271D-01
   0    47    0.818134D-02    0.101171D+01   -0.379428D+01   -0.334955D-01
   0    48    0.912059D-02    0.101013D+01   -0.822746D+00   -0.291089D-01
   0    49    0.988103D-02    0.100870D+01   -0.427230D+01   -0.252419D-01
   0    50    0.105495D-01    0.100758D+01   -0.447071D+01   -0.213385D-01
   0    51    0.111290D-01    0.100695D+01   -0.562253D+01   -0.196636D-01
   0    52    0.113549D-01    0.100647D+01    0.416763D+00   -0.185193D-01
   0    53    0.112923D-01    0.100539D+01    0.146144D+01   -0.151744D-01
   0    54    0.114827D-01    0.100420D+01    0.596582D+01   -0.120783D-01
   0    55    0.114353D-01    0.100354D+01   -0.385240D+01   -0.105143D-01
   0    56    0.117703D-01    0.100388D+01    0.385056D+01   -0.116861D-01
   0    57    0.121718D-01    0.100346D+01   -0.570492D+01   -0.984840D-02
   0    58    0.125834D-01    0.100274D+01   -0.683194D+01   -0.759759D-02
   0    59    0.127261D-01    0.100172D+01   -0.202328D+01   -0.480306D-02
   0    60    0.131389D-01    0.100191D+01    0.288588D+01   -0.503924D-02
   0    61    0.130242D-01    0.100129D+01   -0.306258D+01   -0.317075D-02
   0    62    0.131283D-01    0.100117D+01    0.320366D+01   -0.284537D-02
   0    63    0.134144D-01    0.100065D+01    0.737241D+01   -0.216293D-02
   0    64    0.136054D-01    0.998682D+00    0.174577D+00    0.350520D-02
   0    65    0.135954D-01    0.999349D+00   -0.401740D+01    0.240004D-02
   0    66    0.137402D-01    0.998373D+00    0.174559D+01    0.432909D-02
   0    67    0.135938D-01    0.998707D+00    0.478644D+01    0.320194D-02
   0    68    0.139777D-01    0.998764D+00    0.351011D+01    0.328303D-02
   0    69    0.139800D-01    0.997972D+00    0.762932D+01    0.571401D-02
   0    70    0.142752D-01    0.998382D+00   -0.730445D+01    0.520312D-02
   0    71    0.142521D-01    0.998340D+00   -0.334217D+00    0.505369D-02
   0    72    0.139900D-01    0.997674D+00   -0.979236D+00    0.672867D-02
   0    73    0.140912D-01    0.998466D+00    0.124822D+01    0.464104D-02
   0    74    0.144995D-01    0.998190D+00   -0.285002D+01    0.552340D-02
   0    75    0.146629D-01    0.996772D+00    0.427547D+01    0.922510D-02
   0    76    0.147317D-01    0.996659D+00    0.249602D+01    0.958742D-02
   0    77    0.145478D-01    0.997835D+00    0.934710D+01    0.644492D-02
   0    78    0.146836D-01    0.997100D+00    0.616747D+01    0.816268D-02
   0    79    0.153163D-01    0.996787D+00   -0.545314D+01    0.924001D-02
   0    80    0.151254D-01    0.996897D+00   -0.451449D+01    0.884140D-02
   0    81    0.152756D-01    0.997490D+00    0.255160D+01    0.791293D-02
   0    82    0.152078D-01    0.997171D+00   -0.776724D+01    0.860918D-02
   0    83    0.149170D-01    0.996513D+00    0.596455D+01    0.937307D-02
   0    84    0.148037D-01    0.996976D+00   -0.687220D+01    0.810510D-02
   0    85    0.151768D-01    0.996284D+00   -0.837118D+01    0.106359D-01
   0    86    0.151370D-01    0.996885D+00    0.436752D+01    0.953736D-02
   0    87    0.155898D-01    0.997047D+00    0.574102D+01    0.896403D-02
   0    88    0.152455D-01    0.997072D+00    0.727868D+01    0.876252D-02
   0    89    0.152598D-01    0.997107D+00   -0.708477D+01    0.852876D-02
   0    90    0.149792D-01    0.996689D+00   -0.230723D+00    0.954672D-02
   0    91    0.154277D-01    0.996736D+00    0.879528D+01    0.990107D-02
   0    92    0.154987D-01    0.995177D+00    0.516108D+00    0.135752D-01
   0    93    0.156628D-01    0.994981D+00    0.260755D+00    0.145092D-01
   0    94    0.152486D-01    0.995005D+00    0.331430D+01    0.140264D-01
   0    95    0.157145D-01    0.994997D+00   -0.238181D+01    0.136255D-01
   0    96    0.152555D-01    0.994762D+00   -0.183916D+01    0.152958D-01
   0    97    0.153748D-01    0.995743D+00    0.221552D+01    0.121989D-01
   0    98    0.152117D-01    0.997293D+00    0.444266D+01    0.813821D-02
   0    99    0.157994D-01    0.996286D+00    0.441563D+00    0.104571D-01
   0   100    0.159597D-01    0.995714D+00   -0.797446D+01    0.116868D-01
   0   101    0.153733D-01    0.996588D+00    0.188794D+01    0.924749D-02
   0   102    0.156030D-01    0.996286D+00    0.141557D+01    0.103296D-01
   0   103    0.156971D-01    0.996334D+00   -0.101693D+01    0.100297D-01
   0   104    0.156355D-01    0.995456D+00   -0.503135D+01    0.140459D-01
   0   105    0.149701D-01    0.996809D+00    0.177479D+01    0.947299D-02
   0   106    0.154217D-01    0.997168D+00   -0.278077D+01    0.803853D-02
   0   107    0.151918D-01    0.996802D+00   -0.821415D+01    0.945244D-02
   0   108    0.152326D-01    0.996737D+00   -0.196888D+01    0.857815D-02
   0   109    0.153867D-01    0.996355D+00   -0.753202D+01    0.983691D-02
   0   110    0.152198D-01    0.995603D+00   -0.503046D+01    0.128498D-01
   0   111    0.153558D-01    0.995075D+00   -0.871075D+01    0.137303D-01
   0   112    0.157925D-01    0.996010D+00    0.401438D+01    0.112411D-01
   0   113    0.160813D-01    0.995684D+00   -0.714390D+00    0.122145D-01
   0   114    0.155735D-01    0.997080D+00    0.510678D+01    0.839706D-02
   0   115    0.152686D-01    0.997066D+00    0.719943D+01    0.827468D-02
   0   116    0.154277D-01    0.996713D+00   -0.391181D+01    0.863433D-02
   0   117    0.153874D-01    0.995540D+00   -0.849250D+01    0.121887D-01
   0   118    0.155641D-01    0.995685D+00   -0.228449D+01    0.127185D-01
   0   119    0.160016D-01    0.995059D+00   -0.637621D+01    0.136949D-01
   0   120    0.153006D-01    0.996661D+00    0.387017D+01    0.898397D-02
   0   121    0.155341D-01    0.995861D+00   -0.734748D+01    0.124579D-01
   0   122    0.153822D-01    0.996065D+00    0.392714D+01    0.112152D-01
   0   123    0.152454D-01    0.996419D+00   -0.139973D+01    0.960455D-02
   0   124    0.157355D-01    0.996133D+00   -0.500515D+01    0.108738D-01
   0   125    0.154574D-01    0.997137D+00    0.757929D+01    0.858889D-02
   0   126    0.151256D-01    0.996015D+00    0.251157D+01    0.107490D-01
   0   127    0.153151D-01    0.996567D+00   -0.402332D+01    0.926997D-02
   0   128    0.156818D-01    0.995882D+00   -0.364099D+01    0.120281D-01
   0   129    0.156180D-01    0.996903D+00    0.176340D+01    0.829799D-02
   0   130    0.161643D-01    0.996198D+00   -0.333379D+00    0.110341D-01
   0   131    0.156703D-01    0.996187D+00   -0.200079D+01    0.101239D-01
   0   132    0.156153D-01    0.995690D+00   -0.439675D+01    0.127891D-01
   0   133    0.151627D-01    0.995701D+00    0.122222D+01    0.124942D-01
   0   134    0.155486D-01    0.995857D+00   -0.530523D+01    0.126001D-01
   0   135    0.159017D-01    0.996527D+00    0.760177D+01    0.106363D-01
   0   136    0.156041D-01    0.995728D+00   -0.161025D+01    0.121622D-01
   0   137    0.153082D-01    0.995930D+00   -0.202147D+01    0.115150D-01
   0   138    0.153046D-01    0.995283D+00   -0.503846D+01    0.139970D-01
   0   139    0.154006D-01    0.995626D+00   -0.314245D+01    0.131794D-01
   0   140    0.157385D-01    0.995121D+00   -0.750155D+01    0.142870D-01
   0   141    0.151296D-01    0.995784D+00   -0.160600D+01    0.117019D-01
   0   142    0.151835D-01    0.994949D+00    0.150915D+01    0.142842D-01
   0   143    0.150779D-01    0.995850D+00   -0.821907D+01    0.125438D-01
   0   144    0.159500D-01    0.996327D+00   -0.103181D+02    0.957724D-02
   0   145    0.150545D-01    0.995561D+00    0.911218D+00    0.125116D-01
   0   146    0.152775D-01    0.994634D+00   -0.417036D+01    0.154085D-01
   0   147    0.154894D-01    0.995493D+00    0.863750D+01    0.127320D-01
   0   148    0.154442D-01    0.995800D+00    0.869771D+00    0.123683D-01
   0   149    0.153763D-01    0.995777D+00    0.647699D+00    0.126034D-01
   0   150    0.151071D-01    0.997208D+00    0.414537D+01    0.847019D-02
   0   151    0.151993D-01    0.996360D+00    0.859207D+01    0.106407D-01
   0   152    0.157744D-01    0.995487D+00   -0.604250D+01    0.135882D-01
   0   153    0.157085D-01    0.995020D+00   -0.777039D+01    0.137741D-01
   0   154    0.154854D-01    0.995899D+00    0.441894D+01    0.108912D-01
   0   155    0.153491D-01    0.998079D+00   -0.300550D+01    0.601960D-02
   0   156    0.152000D-01    0.998425D+00   -0.366235D+00    0.462258D-02
   0   157    0.152996D-01    0.998042D+00   -0.713275D+01    0.612250D-02
   0   158    0.152141D-01    0.996407D+00    0.857369D+01    0.960705D-02
   0   159    0.152879D-01    0.995501D+00   -0.836333D+01    0.125611D-01
   0   160    0.152563D-01    0.996529D+00    0.464421D+01    0.983162D-02
   0   161    0.152357D-01    0.998095D+00    0.494969D+01    0.596265D-02
   0   162    0.153229D-01    0.997153D+00   -0.290024D+01    0.849527D-02
   0   163    0.152878D-01    0.996972D+00   -0.612042D+01    0.913651D-02
   0   164    0.154110D-01    0.996793D+00   -0.700080D+01    0.921020D-02
   0   165    0.155363D-01    0.996134D+00   -0.846950D+01    0.101733D-01
   0   166    0.150297D-01    0.995289D+00   -0.391485D+01    0.136034D-01
   0   167    0.148937D-01    0.996265D+00    0.131781D+01    0.100567D-01
   0   168    0.151789D-01    0.997764D+00    0.491613D+01    0.614896D-02
   0   169    0.152282D-01    0.997805D+00   -0.756888D-01    0.651340D-02
   0   170    0.150647D-01    0.997326D+00   -0.893159D+00    0.821782D-02
   0   171    0.151214D-01    0.995584D+00   -0.339966D+01    0.129480D-01
   0   172    0.147102D-01    0.995562D+00   -0.345162D+01    0.134974D-01
   0   173    0.151250D-01    0.996626D+00    0.397614D+01    0.906909D-02
   0   174    0.151643D-01    0.996678D+00    0.742363D+01    0.963104D-02
   0   175    0.152867D-01    0.996178D+00    0.212015D+01    0.104310D-01
   0   176    0.147957D-01    0.996579D+00    0.927995D+00    0.969405D-02
   0   177    0.144875D-01    0.997587D+00   -0.636427D+01    0.735331D-02
   0   178    0.146771D-01    0.996360D+00    0.233416D+01    0.107297D-01
   0   179    0.142651D-01    0.996669D+00    0.215126D+01    0.937764D-02
   0   180    0.150490D-01    0.997859D+00   -0.515271D+00    0.610980D-02
   0   181    0.149803D-01    0.998252D+00   -0.624167D+01    0.549564D-02
   0   182    0.145094D-01    0.997543D+00   -0.269264D+01    0.685866D-02
   0   183    0.149323D-01    0.997542D+00   -0.662410D+01    0.739832D-02
   0   184    0.144702D-01    0.996909D+00    0.183170D+01    0.925729D-02
   0   185    0.147324D-01    0.997158D+00    0.830755D+01    0.888310D-02
   0   186    0.150880D-01    0.995866D+00   -0.441625D+00    0.118327D-01
   0   187    0.149395D-01    0.996627D+00    0.470996D+01    0.899907D-02
   0   188    0.153765D-01    0.998614D+00   -0.635833D+01    0.412976D-02
   0   189    0.145615D-01    0.998578D+00   -0.123524D+01    0.473634D-02
   0   190    0.147038D-01    0.997264D+00    0.516847D+01    0.746683D-02
   0   191    0.150805D-01    0.997090D+00   -0.453292D+01    0.817398D-02
   0   192    0.152092D-01    0.997696D+00    0.429849D+01    0.637425D-02
   0   193    0.150810D-01    0.997919D+00    0.613526D+01    0.606882D-02
   0   194    0.146627D-01    0.997114D+00   -0.613887D+01    0.747638D-02
   0   195    0.150567D-01    0.997412D+00   -0.477577D+00    0.753356D-02
   0   196    0.147554D-01    0.996667D+00   -0.527311D+01    0.888211D-02
   0   197    0.148646D-01    0.996454D+00    0.769204D+01    0.108744D-01
   0   198    0.145213D-01    0.995814D+00    0.560929D+01    0.119570D-01
   0   199    0.147041D-01    0.996256D+00    0.457425D+01    0.102827D-01
   0   200    0.150217D-01    0.997722D+00   -0.264606D+01    0.680597D-02
   0   201    0.145954D-01    0.996636D+00    0.308461D+01    0.982829D-02
   0   202    0.148046D-01    0.996233D+00   -0.341781D+01    0.101865D-01
   0   203    0.148759D-01    0.996699D+00    0.424642D+01    0.998923D-02
   0   204    0.147858D-01    0.995989D+00    0.735069D+01    0.117446D-01
   0   205    0.144966D-01    0.996733D+00    0.725181D+01    0.882843D-02
   0   206    0.150632D-01    0.996775D+00   -0.507779D+01    0.892217D-02
   0   207    0.148343D-01    0.997223D+00   -0.565407D+00    0.731075D-02
   0   208    0.149968D-01    0.996524D+00    0.189967D+01    0.975898D-02
   0   209    0.145563D-01    0.996572D+00    0.379322D+01    0.950171D-02
   0   210    0.144414D-01    0.997951D+00    0.108071D+01    0.599609D-02
   0   211    0.147085D-01    0.997528D+00    0.493038D+01    0.723483D-02
   0   212    0.148629D-01    0.998056D+00    0.189212D+01    0.527793D-02
   0   213    0.147868D-01    0.998396D+00    0.640466D+01    0.520542D-02
   0   214    0.145323D-01    0.997557D+00   -0.321962D+01    0.715199D-02
   0   215    0.145386D-01    0.996968D+00    0.222039D+01    0.837294D-02
   0   216    0.143388D-01    0.997509D+00   -0.744362D+01    0.741426D-02
   0   217    0.143416D-01    0.996569D+00   -0.724661D+01    0.939305D-02
   0   218    0.145362D-01    0.998047D+00   -0.700032D+01    0.467841D-02
   0   219    0.145875D-01    0.997102D+00    0.685165D+01    0.841276D-02
   0   220    0.146900D-01    0.997454D+00   -0.586281D+00    0.701792D-02
   0   221    0.145263D-01    0.998209D+00   -0.746225D+01    0.509030D-02
   0   222    0.140366D-01    0.998699D+00   -0.299299D+01    0.319392D-02
   0   223    0.143166D-01    0.998990D+00    0.137968D+01    0.252794D-02
   0   224    0.139115D-01    0.998086D+00   -0.261817D+01    0.582334D-02
   0   225    0.144701D-01    0.997512D+00    0.280950D+01    0.742031D-02
   0   226    0.141076D-01    0.998278D+00    0.267935D+01    0.535989D-02
   0   227    0.142931D-01    0.998080D+00   -0.778421D+01    0.602309D-02
   0   228    0.139961D-01    0.998098D+00   -0.203010D+01    0.563068D-02
   0   229    0.141768D-01    0.997380D+00    0.821299D+01    0.696456D-02
   0   230    0.142560D-01    0.997760D+00    0.640454D+01    0.667327D-02
   0   231    0.144123D-01    0.997293D+00    0.235328D+01    0.747814D-02
   0   232    0.144310D-01    0.997329D+00    0.426115D+01    0.737908D-02
   0   233    0.146969D-01    0.997621D+00    0.362540D+01    0.684458D-02
   0   234    0.143932D-01    0.997902D+00    0.150604D+01    0.667339D-02
   0   235    0.146857D-01    0.997128D+00   -0.608670D+01    0.756008D-02
   0   236    0.146544D-01    0.997705D+00    0.745311D+01    0.688391D-02
   0   237    0.141531D-01    0.997570D+00   -0.270038D+01    0.658771D-02
   0   238    0.139994D-01    0.998554D+00    0.496852D+01    0.472884D-02
   0   239    0.139518D-01    0.997996D+00    0.395009D-04    0.632101D-02
   0   240    0.138229D-01    0.997410D+00   -0.170547D+01    0.779234D-02
   0   241    0.143361D-01    0.999216D+00   -0.244162D+01    0.236810D-02
   0   242    0.143492D-01    0.998121D+00    0.197243D+01    0.545453D-02
   0   243    0.143416D-01    0.998004D+00   -0.753231D+01    0.600517D-02
   0   244    0.142024D-01    0.998092D+00    0.189954D+01    0.553564D-02
   0   245    0.143385D-01    0.998506D+00   -0.377091D+01    0.435578D-02
   0   246    0.146363D-01    0.997877D+00    0.418812D+01    0.677655D-02
   0   247    0.144309D-01    0.997524D+00    0.345337D-02    0.682576D-02
   0   248    0.141253D-01    0.998877D+00   -0.300361D+01    0.325187D-02
   0   249    0.138412D-01    0.998070D+00    0.770329D+01    0.533470D-02
   0   250    0.140444D-01    0.996607D+00    0.271222D+01    0.937732D-02
   0   251    0.144615D-01    0.996384D+00   -0.380855D+01    0.107311D-01
   0   252    0.141526D-01    0.997059D+00   -0.440005D+00    0.833565D-02
   0   253    0.139322D-01    0.998975D+00   -0.229543D+01    0.260053D-02
   0   254    0.138718D-01    0.998203D+00   -0.582966D+01    0.538014D-02
   0   255    0.139031D-01    0.998501D+00    0.211567D+01    0.400888D-02
   0   256    0.135703D-01    0.998156D+00    0.258646D+01    0.470362D-02
   0   257    0.137781D-01    0.999163D+00   -0.163616D+01    0.238648D-02
   0   258    0.143098D-01    0.999131D+00    0.802854D+01    0.289781D-02
   0   259    0.139470D-01    0.998359D+00    0.417581D+00    0.419522D-02
   0   260    0.137614D-01    0.998218D+00   -0.334218D+01    0.543530D-02
   0   261    0.137707D-01    0.999875D+00   -0.394471D+01    0.811289D-03
   0   262    0.141282D-01    0.100011D+01   -0.674965D+00   -0.105264D-02
   0   263    0.137414D-01    0.999422D+00    0.149092D+01    0.196215D-02
   0   264    0.138978D-01    0.998204D+00   -0.673804D+01    0.474657D-02
   0   265    0.142506D-01    0.998939D+00   -0.728813D+01    0.267960D-02
   0   266    0.138365D-01    0.998629D+00    0.118870D+01    0.394141D-02
   0   267    0.134720D-01    0.998805D+00    0.456610D+01    0.319255D-02
   0   268    0.139381D-01    0.998707D+00    0.526781D+01    0.391894D-02
   0   269    0.139906D-01    0.998635D+00    0.200566D+01    0.449620D-02
   0   270    0.138395D-01    0.997055D+00   -0.671202D+01    0.859825D-02
   0   271    0.140445D-01    0.997953D+00    0.393159D+01    0.599653D-02
   0   272    0.137744D-01    0.998636D+00    0.148228D+01    0.407807D-02
   0   273    0.139078D-01    0.999064D+00    0.436879D+01    0.335127D-02
   0   274    0.137788D-01    0.999521D+00    0.611078D+01    0.103843D-02
   0   275    0.136885D-01    0.999371D+00   -0.346984D+01    0.189550D-02
   0   276    0.139742D-01    0.999725D+00   -0.692124D+00    0.123144D-02
   0   277    0.136001D-01    0.999587D+00    0.194757D+01    0.567047D-03
   0   278    0.133751D-01    0.999591D+00   -0.655715D+01    0.143223D-02
   0   279    0.131683D-01    0.999669D+00   -0.644855D+01    0.917592D-03
   0   280    0.135794D-01    0.100044D+01   -0.564337D+01   -0.171952D-02
   0   281    0.134447D-01    0.100025D+01    0.930713D+00   -0.153761D-03
   0   282    0.135752D-01    0.998302D+00   -0.552790D+01    0.568262D-02
   0   283    0.136154D-01    0.999764D+00    0.256953D+01    0.445799D-03
   0   284    0.137634D-01    0.999715D+00    0.390408D+01    0.138657D-02
   0   285    0.139527D-01    0.999937D+00   -0.135351D+01   -0.402340D-04
   0   286    0.135146D-01    0.100017D+01   -0.342988D+01   -0.287532D-03
   0   287    0.134994D-01    0.999553D+00   -0.376696D+01    0.140678D-02
   0   288    0.140641D-01    0.999639D+00    0.567270D+01    0.863846D-03
   0   289    0.135300D-01    0.999738D+00   -0.206877D+00    0.472938D-03
   0   290    0.137038D-01    0.999856D+00   -0.375455D+01    0.913916D-03
   0   291    0.136000D-01    0.999257D+00    0.549071D+00    0.262390D-02
   0   292    0.138222D-01    0.998259D+00    0.373217D+01    0.538117D-02
   0   293    0.139168D-01    0.998472D+00    0.731915D+00    0.420750D-02
   0   294    0.142081D-01    0.100016D+01    0.610774D+01   -0.959272D-03
   0   295    0.136120D-01    0.999716D+00   -0.610336D+01    0.412238D-03
   0   296    0.137587D-01    0.100037D+01    0.289866D+01   -0.295169D-03
   0   297    0.138316D-01    0.999231D+00   -0.459722D+01    0.225068D-02
   0   298    0.141645D-01    0.999134D+00   -0.377250D+01    0.188060D-02
   0   299    0.143259D-01    0.997905D+00   -0.230982D+01    0.612118D-02
   0   300    0.143384D-01    0.998373D+00    0.164378D+01    0.470347D-02
   0   301    0.142082D-01    0.998878D+00    0.277540D+01    0.281133D-02
   0   302    0.137479D-01    0.998297D+00    0.197236D+00    0.547734D-02
   0   303    0.138362D-01    0.998294D+00   -0.721362D+01    0.484535D-02
   0   304    0.140335D-01    0.999387D+00   -0.898697D-01    0.226828D-02
   0   305    0.139991D-01    0.998482D+00   -0.206221D+01    0.421583D-02
   0   306    0.138993D-01    0.999081D+00   -0.622253D+01    0.293587D-02
   0   307    0.141556D-01    0.999237D+00   -0.591161D+01    0.176207D-02
   0   308    0.140797D-01    0.998187D+00   -0.205788D+00    0.548840D-02
   0   309    0.136369D-01    0.997765D+00   -0.887351D+00    0.712246D-02
   0   310    0.139789D-01    0.998255D+00   -0.152814D+01    0.448695D-02
   0   311    0.140475D-01    0.998458D+00   -0.679193D+01    0.439239D-02
   0   312    0.140938D-01    0.998904D+00   -0.541512D+01    0.307213D-02
   0   313    0.138483D-01    0.998332D+00   -0.218288D+01    0.445106D-02
   0   314    0.147007D-01    0.997959D+00   -0.106590D+01    0.635643D-02
   0   315    0.146333D-01    0.998039D+00    0.655448D+00    0.495916D-02
   0   316    0.145213D-01    0.998879D+00    0.464505D+01    0.378435D-02
   0   317    0.147828D-01    0.997873D+00   -0.406937D+01    0.563765D-02
   0   318    0.144768D-01    0.998888D+00    0.516789D+01    0.382442D-02
   0   319    0.146453D-01    0.997985D+00    0.593715D+01    0.497537D-02
   0   320    0.144838D-01    0.998219D+00   -0.161060D+01    0.562447D-02
   0   321    0.149336D-01    0.997227D+00    0.326707D-01    0.859117D-02
   0   322    0.151940D-01    0.996766D+00    0.928187D+01    0.941778D-02
   0   323    0.157571D-01    0.997624D+00   -0.503920D+01    0.598036D-02
   0   324    0.154358D-01    0.997257D+00   -0.197383D+01    0.833416D-02
   0   325    0.155987D-01    0.996545D+00    0.103648D+00    0.963435D-02
   0   326    0.156896D-01    0.995586D+00   -0.278879D+01    0.129743D-01
   0   327    0.162528D-01    0.995569D+00    0.157667D+01    0.124547D-01
   0   328    0.159602D-01    0.995438D+00   -0.504950D+01    0.132115D-01
   0   329    0.155789D-01    0.995054D+00   -0.749761D+01    0.139522D-01
   0   330    0.164022D-01    0.994142D+00   -0.913458D+01    0.164458D-01
   0   331    0.169805D-01    0.991221D+00   -0.224568D+01    0.253438D-01
   0   332    0.181980D-01    0.987428D+00    0.868913D+00    0.366989D-01
   0   333    0.197117D-01    0.980981D+00    0.414413D+01    0.537995D-01
   0   334    0.217060D-01    0.970146D+00   -0.101252D+02    0.837200D-01
   0   335    0.253506D-01    0.951576D+00   -0.110000D+02    0.128886D+00
   0   336    0.278390D-01    0.924134D+00   -0.104520D+02    0.186278D+00
   0   337    0.269580D-01    0.882955D+00    0.154521D+02    0.248068D+00
   0   338    0.217567D-01    0.819823D+00    0.126517D+02    0.305254D+00
   0   339    0.136028D-01    0.732742D+00    0.679077D+01    0.347635D+00
   0   340    0.721578D-02    0.628042D+00    0.408849D+01    0.374872D+00
   0   341    0.319045D-02    0.518056D+00    0.209212D+01    0.391457D+00
   0   342    0.127028D-02    0.412752D+00    0.137117D+01    0.401721D+00
   0   343    0.461607D-03    0.319213D+00    0.324975D+00    0.408245D+00
   0   344    0.163140D-03    0.240623D+00    0.821423D-01    0.412508D+00
   0   345    0.547414D-04    0.177431D+00    0.214575D-01    0.415354D+00
   0   346    0.180691D-04    0.128355D+00    0.175773D-01    0.417285D+00
   0   347    0.565098D-05    0.913149D-01    0.483520D-02    0.418605D+00
   0   348    0.179428D-05    0.640211D-01    0.216903D-02    0.419512D+00
   0   349    0.549285D-06    0.443152D-01    0.221106D-03    0.420135D+00
   0   350    0.165581D-06    0.303339D-01    0.527619D-04    0.420562D+00
   0   351    0.486450D-07    0.205620D-01    0.337080D-04    0.420853D+00
   0   352    0.143365D-07    0.138199D-01    0.470914D-05    0.421050D+00
   0   353    0.411337D-08    0.921981D-02    0.960912D-06    0.421184D+00
   0   354    0.116644D-08    0.611125D-02    0.111213D-05    0.421273D+00
   0   355    0.339153D-09    0.402800D-02    0.310447D-06    0.421333D+00
   0   356    0.101228D-09    0.264188D-02    0.764482D-07    0.421372D+00
   0   357    0.321726D-10    0.172532D-02    0.360636D-08    0.421398D+00
   0   358    0.976077D-11    0.112252D-02    0.128182D-07    0.421415D+00
   0   359    0.291518D-11    0.727927D-03    0.279591D-08    0.421426D+00
   0   360    0.885032D-12    0.470682D-03    0.382751D-09    0.421434D+00
   0   361    0.261777D-12    0.303574D-03    0.117961D-09    0.421438D+00
   0   362    0.740483D-13    0.195358D-03    0.137867D-10    0.421441D+00
   0   363    0.215426D-13    0.125470D-03    0.243226D-10    0.421443D+00
   0   364    0.586275D-14    0.804443D-04    0.352396D-11    0.421445D+00
   0   365    0.162361D-14    0.514970D-04    0.188865D-11    0.421446D+00
   0   366    0.457792D-15    0.329213D-04    0.102243D-12    0.421446D+00
   0   367    0.121588D-15    0.210208D-04    0.125679D-12    0.421446D+00
   0   368    0.335388D-16    0.134077D-04    0.185459D-13    0.421447D+00
   0   369    0.922308D-17    0.854377D-05    0.114198D-13    0.421447D+00
   0   370    0.250866D-17    0.543975D-05    0.261990D-14    0.421447D+00
   0   371    0.653526D-18    0.346085D-05    0.596230D-15    0.421447D+00
   0   372    0.170377D-18    0.220038D-05    0.230654D-15    0.421447D+00
   0   373    0.442980D-19    0.139816D-05    0.408565D-16    0.421447D+00
   0   374    0.119936D-19    0.887953D-06    0.138964D-16    0.421447D+00
   0   375    0.311946D-20    0.563664D-06    0.330434D-17    0.421447D+00
   0   376    0.791862D-21    0.357662D-06    0.568459D-18    0.421447D+00
   0   377    0.205463D-21    0.226865D-06    0.560438D-19    0.421447D+00
   0   378    0.510468D-22    0.143854D-06    0.538281D-19    0.421447D+00
   0   379    0.126142D-22    0.911916D-07    0.850693D-20    0.421447D+00
   0   380    0.316298D-23    0.577936D-07    0.290291D-20    0.421447D+00
   0   381    0.795775D-24    0.366194D-07    0.919340D-21    0.421447D+00
   0   382    0.195896D-24    0.231986D-07    0.111443D-21    0.421447D+00
   0   383    0.488279D-25    0.146940D-07    0.331674D-22    0.421447D+00
   0   384    0.121062D-25    0.930592D-08    0.116092D-22    0.421447D+00
   0   385    0.294559D-26    0.589287D-08    0.142812D-23    0.421447D+00
   0   386    0.723248D-27    0.373122D-08    0.578434D-24    0.421447D+00
   0   387    0.179030D-27    0.236232D-08    0.137695D-24    0.421447D+00
   0   388    0.433547D-28    0.149552D-08    0.344310D-25    0.421447D+00
   0   389    0.109929D-28    0.946714D-09    0.124170D-25    0.421447D+00
   0   390    0.277637D-29    0.599251D-09    0.551477D-27    0.421447D+00
   0   391    0.683025D-30    0.379266D-09    0.369892D-27    0.421447D+00
   0   392    0.161973D-30    0.239974D-09    0.184596D-27    0.421447D+00
   0   393    0.392938D-31    0.151747D-09    0.512570D-28    0.421447D+00
   0   394    0.960486D-32    0.958128D-10    0.103712D-28    0.421447D+00
   0   395    0.238573D-32    0.602696D-10    0.314066D-29    0.421447D+00
   0   396    0.566214D-33    0.375533D-10    0.392525D-30    0.421447D+00
   0   397    0.139645D-33    0.228296D-10    0.151388D-30    0.421447D+00