variables =  "IG"  "JG"  "PHI"  "Temp."  "Latent_heat"  "mm"
ZONE  I=  401  J=  101
   0     0    0.100000D+01    0.901016D+00    0.000000D+00    0.223541D+00
   0     1    0.100000D+01    0.901016D+00    0.000000D+00    0.223541D+00
   0     2    0.100000D+01    0.901229D+00    0.000000D+00    0.223232D+00
   0     3    0.100000D+01    0.901656D+00    0.000000D+00    0.222612D+00
   0     4    0.100000D+01    0.902294D+00    0.000000D+00    0.221680D+00
   0     5    0.100000D+01    0.903142D+00    0.000000D+00    0.220432D+00
   0     6    0.100000D+01    0.904197D+00    0.000000D+00    0.218864D+00
   0     7    0.100000D+01    0.905456D+00    0.000000D+00    0.216970D+00
   0     8    0.100000D+01    0.906917D+00    0.000000D+00    0.214745D+00
   0     9    0.100000D+01    0.908574D+00    0.000000D+00    0.212180D+00
   0    10    0.100000D+01    0.910423D+00    0.000000D+00    0.209267D+00
   0    11    0.100000D+01    0.912460D+00    0.000000D+00    0.205997D+00
   0    12    0.100000D+01    0.914679D+00    0.000000D+00    0.202359D+00
   0    13    0.100000D+01    0.917074D+00    0.000000D+00    0.198341D+00
   0    14    0.100000D+01    0.919640D+00    0.000000D+00    0.193930D+00
   0    15    0.100000D+01    0.922370D+00    0.000000D+00    0.189113D+00
   0    16    0.100000D+01    0.925260D+00    0.000000D+00    0.183874D+00
   0    17    0.100000D+01    0.928304D+00    0.000000D+00    0.178198D+00
   0    18    0.100000D+01    0.931495D+00    0.000000D+00    0.172068D+00
   0    19    0.100000D+01    0.934829D+00    0.000000D+00    0.165465D+00
   0    20    0.100000D+01    0.938302D+00    0.000000D+00    0.158370D+00
   0    21    0.100000D+01    0.941910D+00    0.000000D+00    0.150763D+00
   0    22    0.100000D+01    0.945650D+00   -0.133227D-10    0.142622D+00
   0    23    0.100000D+01    0.949520D+00    0.932587D-09    0.133923D+00
   0    24    0.100000D+01    0.953521D+00    0.107914D-07    0.124644D+00
   0    25    0.100000D+01    0.957653D+00   -0.855449D-07    0.114757D+00
   0    26    0.100000D+01    0.961919D+00   -0.214762D-07    0.104238D+00
   0    27    0.100000D+01    0.966324D+00   -0.325087D-05    0.930566D-01
   0    28    0.100000D+01    0.970878D+00    0.400203D-04    0.811819D-01
   0    29    0.100000D+01    0.975594D+00   -0.204867D-03    0.685744D-01
   0    30    0.999997D+00    0.980496D+00    0.461956D-03    0.551781D-01
   0    31    0.999979D+00    0.985625D+00   -0.126912D-01    0.408968D-01
   0    32    0.999862D+00    0.991058D+00   -0.641872D-01    0.255447D-01
   0    33    0.999119D+00    0.996927D+00    0.332858D+00    0.880657D-02
   0    34    0.994468D+00    0.100344D+01    0.154288D+01   -0.987490D-02
   0    35    0.967107D+00    0.101105D+01    0.141509D+01   -0.312544D-01
   0    36    0.812604D+00    0.101945D+01   -0.358105D+02   -0.534057D-01
   0    37    0.289166D+00    0.103025D+01    0.547430D+01   -0.849241D-01
   0    38    0.665473D-01    0.102558D+01    0.178249D+02   -0.720237D-01
   0    39    0.202370D-01    0.102047D+01    0.996521D+01   -0.577342D-01
   0    40    0.102135D-01    0.101616D+01   -0.570245D+01   -0.457957D-01
   0    41    0.851525D-02    0.101310D+01   -0.322923D+01   -0.372618D-01
   0    42    0.928354D-02    0.101011D+01   -0.433501D+00   -0.291828D-01
   0    43    0.988295D-02    0.100845D+01   -0.178976D+01   -0.239675D-01
   0    44    0.104109D-01    0.100762D+01    0.155492D+01   -0.220409D-01
   0    45    0.108819D-01    0.100580D+01    0.160941D+01   -0.162403D-01
   0    46    0.111959D-01    0.100453D+01   -0.457663D+01   -0.127835D-01
   0    47    0.116242D-01    0.100550D+01    0.185274D+01   -0.155649D-01
   0    48    0.115774D-01    0.100492D+01    0.425028D+01   -0.140361D-01
   0    49    0.117944D-01    0.100378D+01    0.428715D+01   -0.109808D-01
   0    50    0.120013D-01    0.100416D+01   -0.437923D+01   -0.121313D-01
   0    51    0.123090D-01    0.100363D+01    0.677056D+01   -0.987773D-02
   0    52    0.126013D-01    0.100276D+01   -0.181943D+01   -0.762681D-02
   0    53    0.124573D-01    0.100173D+01    0.257760D+01   -0.550048D-02
   0    54    0.126904D-01    0.100216D+01    0.620331D+01   -0.575830D-02
   0    55    0.126850D-01    0.100187D+01   -0.760386D+00   -0.546064D-02
   0    56    0.129177D-01    0.100088D+01   -0.371281D+00   -0.228077D-02
   0    57    0.130855D-01    0.100069D+01    0.613645D+01   -0.168139D-02
   0    58    0.131550D-01    0.999986D+00    0.434096D+01   -0.473180D-03
   0    59    0.132241D-01    0.100016D+01   -0.484540D+01   -0.766774D-04
   0    60    0.131443D-01    0.999304D+00    0.585710D+01    0.233853D-02
   0    61    0.131882D-01    0.999813D+00   -0.576500D+01    0.125843D-02
   0    62    0.140754D-01    0.999118D+00   -0.800854D+00    0.264664D-02
   0    63    0.141667D-01    0.998164D+00    0.168390D+01    0.475738D-02
   0    64    0.137748D-01    0.998788D+00    0.479357D+01    0.401123D-02
   0    65    0.137316D-01    0.998321D+00   -0.456961D+01    0.519135D-02
   0    66    0.140358D-01    0.997777D+00   -0.310086D+01    0.572090D-02
   0    67    0.137362D-01    0.998768D+00    0.834441D-01    0.367973D-02
   0    68    0.142620D-01    0.997670D+00   -0.701487D+01    0.731076D-02
   0    69    0.144905D-01    0.998204D+00   -0.196650D+01    0.551621D-02
   0    70    0.143240D-01    0.998298D+00    0.259252D+01    0.465397D-02
   0    71    0.146559D-01    0.997168D+00    0.811735D+01    0.811902D-02
   0    72    0.147620D-01    0.996629D+00   -0.558643D+01    0.990334D-02
   0    73    0.144949D-01    0.995974D+00    0.672677D+01    0.112530D-01
   0    74    0.148861D-01    0.997374D+00   -0.146302D+01    0.745174D-02
   0    75    0.145993D-01    0.998131D+00    0.701625D+01    0.551293D-02
   0    76    0.148408D-01    0.997254D+00    0.399958D+01    0.774235D-02
   0    77    0.144389D-01    0.996636D+00    0.699459D+01    0.971383D-02
   0    78    0.147968D-01    0.996345D+00   -0.615596D+01    0.974929D-02
   0    79    0.148769D-01    0.995132D+00    0.625151D+01    0.136658D-01
   0    80    0.143458D-01    0.995939D+00    0.131006D+01    0.123690D-01
   0    81    0.150133D-01    0.995863D+00    0.446053D+01    0.120765D-01
   0    82    0.149747D-01    0.996312D+00    0.446366D+01    0.107754D-01
   0    83    0.148873D-01    0.996778D+00   -0.508154D+01    0.975917D-02
   0    84    0.149786D-01    0.996893D+00   -0.130090D+01    0.822296D-02
   0    85    0.149415D-01    0.997002D+00    0.310384D+01    0.854304D-02
   0    86    0.151491D-01    0.996825D+00    0.790461D+01    0.970187D-02
   0    87    0.150528D-01    0.996501D+00   -0.516738D+01    0.103387D-01
   0    88    0.151157D-01    0.996913D+00    0.538452D+01    0.953560D-02
   0    89    0.147850D-01    0.997431D+00   -0.429342D+01    0.796483D-02
   0    90    0.148987D-01    0.997401D+00   -0.660267D+01    0.702717D-02
   0    91    0.150978D-01    0.998116D+00   -0.567888D+01    0.583842D-02
   0    92    0.153292D-01    0.997776D+00    0.428632D+01    0.696631D-02
   0    93    0.149945D-01    0.997240D+00   -0.642300D+01    0.858330D-02
   0    94    0.147414D-01    0.997272D+00    0.343193D+01    0.815734D-02
   0    95    0.151757D-01    0.997018D+00    0.412093D+01    0.892385D-02
   0    96    0.150156D-01    0.996809D+00   -0.518847D+01    0.905745D-02
   0    97    0.155069D-01    0.996218D+00   -0.535862D+01    0.110152D-01
   0    98    0.150264D-01    0.996471D+00    0.767245D+01    0.107481D-01
   0    99    0.153350D-01    0.997454D+00    0.189726D+01    0.702197D-02
   0   100    0.150502D-01    0.996541D+00   -0.757438D+01    0.105807D-01
   0   101    0.151515D-01    0.996681D+00   -0.181858D+01    0.862834D-02
   0   102    0.152006D-01    0.996654D+00    0.926049D+00    0.915545D-02
   0   103    0.147835D-01    0.996351D+00   -0.749897D+01    0.103232D-01
   0   104    0.152265D-01    0.996366D+00    0.539824D+01    0.107416D-01
   0   105    0.151808D-01    0.995717D+00   -0.449264D+01    0.128817D-01
   0   106    0.149731D-01    0.996253D+00   -0.534267D+01    0.106252D-01
   0   107    0.150711D-01    0.996508D+00    0.497946D+01    0.100048D-01
   0   108    0.149482D-01    0.996244D+00    0.786078D+01    0.111460D-01
   0   109    0.151583D-01    0.996379D+00   -0.341315D+01    0.108385D-01
   0   110    0.151379D-01    0.996877D+00   -0.476598D+01    0.867326D-02
   0   111    0.150995D-01    0.996068D+00   -0.239183D+01    0.114238D-01
   0   112    0.148676D-01    0.996327D+00   -0.522868D+00    0.100179D-01
   0   113    0.150842D-01    0.996131D+00   -0.913962D+01    0.117096D-01
   0   114    0.148837D-01    0.997048D+00   -0.503729D+00    0.871534D-02
   0   115    0.154480D-01    0.996755D+00   -0.752542D+00    0.913749D-02
   0   116    0.151793D-01    0.996211D+00   -0.820374D+01    0.115458D-01
   0   117    0.151954D-01    0.996368D+00   -0.645071D+01    0.100006D-01
   0   118    0.148833D-01    0.996764D+00    0.642307D+01    0.921572D-02
   0   119    0.148603D-01    0.997037D+00    0.867364D+01    0.911339D-02
   0   120    0.149889D-01    0.996608D+00   -0.639628D+01    0.989701D-02
   0   121    0.150225D-01    0.996794D+00    0.334616D+01    0.978173D-02
   0   122    0.149590D-01    0.997112D+00    0.865868D+01    0.878505D-02
   0   123    0.149831D-01    0.995703D+00    0.170777D+01    0.126671D-01
   0   124    0.152282D-01    0.995633D+00   -0.380612D+01    0.121871D-01
   0   125    0.149780D-01    0.997617D+00   -0.532100D+01    0.703050D-02
   0   126    0.148509D-01    0.997600D+00    0.143404D+01    0.651972D-02
   0   127    0.145938D-01    0.997644D+00    0.321470D+00    0.686238D-02
   0   128    0.147049D-01    0.996288D+00    0.484885D+01    0.101525D-01
   0   129    0.147088D-01    0.996211D+00   -0.135068D+01    0.105014D-01
   0   130    0.149162D-01    0.996109D+00    0.825968D+01    0.115273D-01
   0   131    0.150476D-01    0.995160D+00   -0.440732D+01    0.135260D-01
   0   132    0.148953D-01    0.996746D+00   -0.692475D+01    0.972690D-02
   0   133    0.153080D-01    0.997759D+00    0.498592D+01    0.599334D-02
   0   134    0.150105D-01    0.998039D+00   -0.645450D+01    0.621066D-02
   0   135    0.149622D-01    0.997433D+00    0.246134D+01    0.699355D-02
   0   136    0.147330D-01    0.999127D+00   -0.413428D+01    0.199234D-02
   0   137    0.142676D-01    0.999008D+00    0.100242D+02    0.316017D-02
   0   138    0.145071D-01    0.998400D+00   -0.206156D+01    0.398771D-02
   0   139    0.149349D-01    0.997577D+00   -0.225952D+01    0.716877D-02
   0   140    0.146951D-01    0.996703D+00    0.594283D+01    0.977393D-02
   0   141    0.148347D-01    0.997111D+00    0.814034D+01    0.863318D-02
   0   142    0.149395D-01    0.997704D+00    0.373672D+01    0.662919D-02
   0   143    0.153450D-01    0.998139D+00    0.318662D+01    0.541658D-02
   0   144    0.146846D-01    0.997777D+00   -0.517739D+01    0.567144D-02
   0   145    0.146596D-01    0.997609D+00    0.460775D+01    0.671327D-02
   0   146    0.149457D-01    0.997592D+00   -0.954505D+01    0.663767D-02
   0   147    0.146281D-01    0.997867D+00    0.621837D+00    0.571116D-02
   0   148    0.145048D-01    0.997902D+00    0.939201D+01    0.611292D-02
   0   149    0.150598D-01    0.996642D+00    0.600428D+01    0.977841D-02
   0   150    0.148066D-01    0.997426D+00   -0.512081D+01    0.704807D-02
   0   151    0.145651D-01    0.997246D+00   -0.568477D+01    0.739708D-02
   0   152    0.147785D-01    0.997747D+00    0.132951D+01    0.650250D-02
   0   153    0.149764D-01    0.997613D+00   -0.250226D+01    0.626588D-02
   0   154    0.144512D-01    0.997748D+00   -0.203691D+01    0.584986D-02
   0   155    0.148909D-01    0.998679D+00    0.136026D+01    0.404918D-02
   0   156    0.151492D-01    0.996919D+00   -0.647881D+01    0.952771D-02
   0   157    0.149099D-01    0.997955D+00   -0.816496D+01    0.616253D-02
   0   158    0.147592D-01    0.997089D+00    0.608387D+01    0.903546D-02
   0   159    0.145723D-01    0.997117D+00   -0.527545D+01    0.822836D-02
   0   160    0.147199D-01    0.996907D+00   -0.198305D+01    0.958895D-02
   0   161    0.147145D-01    0.996952D+00    0.419394D+01    0.829561D-02
   0   162    0.147408D-01    0.997849D+00   -0.700960D+01    0.608814D-02
   0   163    0.147554D-01    0.997117D+00    0.193142D+01    0.908427D-02
   0   164    0.141260D-01    0.997306D+00    0.435600D+01    0.729444D-02
   0   165    0.140570D-01    0.997139D+00   -0.129826D+01    0.895422D-02
   0   166    0.142310D-01    0.998679D+00   -0.189950D+01    0.403571D-02
   0   167    0.150918D-01    0.998435D+00   -0.287934D+00    0.499850D-02
   0   168    0.148845D-01    0.998716D+00    0.599069D+01    0.349216D-02
   0   169    0.146120D-01    0.997493D+00    0.134579D+01    0.725509D-02
   0   170    0.143514D-01    0.998468D+00   -0.134837D+01    0.393036D-02
   0   171    0.144276D-01    0.997471D+00   -0.705188D+01    0.664182D-02
   0   172    0.143869D-01    0.997657D+00   -0.390814D+01    0.596505D-02
   0   173    0.144256D-01    0.996373D+00    0.580024D+01    0.989386D-02
   0   174    0.146962D-01    0.997789D+00   -0.176129D+01    0.674794D-02
   0   175    0.144019D-01    0.997707D+00   -0.759720D+01    0.713422D-02
   0   176    0.144321D-01    0.997198D+00    0.441488D+01    0.744586D-02
   0   177    0.140022D-01    0.997914D+00    0.583363D+01    0.570831D-02
   0   178    0.144820D-01    0.999181D+00    0.900219D+00    0.254107D-02
   0   179    0.143707D-01    0.998637D+00    0.553462D+01    0.454926D-02
   0   180    0.142956D-01    0.998239D+00    0.551436D+01    0.534683D-02
   0   181    0.144153D-01    0.998501D+00    0.387464D+01    0.439861D-02
   0   182    0.143412D-01    0.998266D+00    0.797666D+01    0.514404D-02
   0   183    0.140743D-01    0.997410D+00    0.238736D+00    0.802587D-02
   0   184    0.142455D-01    0.996843D+00   -0.117819D+01    0.865422D-02
   0   185    0.141660D-01    0.997040D+00    0.139427D+01    0.904090D-02
   0   186    0.145654D-01    0.997883D+00    0.187330D+01    0.645704D-02
   0   187    0.145527D-01    0.997787D+00    0.548545D+01    0.565657D-02
   0   188    0.145879D-01    0.997490D+00   -0.650770D+01    0.644282D-02
   0   189    0.147168D-01    0.997559D+00   -0.952712D+01    0.763462D-02
   0   190    0.142937D-01    0.998629D+00   -0.736329D+00    0.318787D-02
   0   191    0.139691D-01    0.997978D+00    0.569538D+00    0.554704D-02
   0   192    0.142366D-01    0.998759D+00   -0.222104D+01    0.350215D-02
   0   193    0.141996D-01    0.998561D+00    0.171679D+01    0.390514D-02
   0   194    0.140761D-01    0.999221D+00    0.103709D+01    0.175799D-02
   0   195    0.140489D-01    0.998849D+00   -0.457550D+01    0.377928D-02
   0   196    0.139667D-01    0.998041D+00   -0.802895D+01    0.641157D-02
   0   197    0.139256D-01    0.999476D+00    0.327184D+01    0.162635D-02
   0   198    0.140726D-01    0.998278D+00   -0.537976D+01    0.550589D-02
   0   199    0.142417D-01    0.998376D+00   -0.911113D+01    0.477370D-02
   0   200    0.136512D-01    0.997136D+00   -0.771080D+01    0.881387D-02
   0   201    0.135836D-01    0.997335D+00   -0.691993D+01    0.734599D-02
   0   202    0.140246D-01    0.997290D+00    0.257000D+01    0.831397D-02
   0   203    0.140632D-01    0.997828D+00    0.316985D+01    0.574042D-02
   0   204    0.136942D-01    0.997868D+00   -0.698774D+01    0.622563D-02
   0   205    0.144344D-01    0.998986D+00   -0.230081D+01    0.274972D-02
   0   206    0.144470D-01    0.998191D+00    0.637016D+01    0.437294D-02
   0   207    0.142573D-01    0.999266D+00   -0.576101D+01    0.232558D-02
   0   208    0.145422D-01    0.998525D+00    0.424464D+01    0.487074D-02
   0   209    0.144693D-01    0.997206D+00    0.709476D+00    0.850336D-02
   0   210    0.149849D-01    0.996794D+00    0.724862D+01    0.865984D-02
   0   211    0.150970D-01    0.997332D+00   -0.332122D+01    0.823869D-02
   0   212    0.151095D-01    0.997607D+00    0.480770D+01    0.672799D-02
   0   213    0.147671D-01    0.997592D+00    0.387900D+01    0.721818D-02
   0   214    0.143534D-01    0.996849D+00    0.687483D+01    0.898868D-02
   0   215    0.150917D-01    0.996863D+00    0.249821D+01    0.876802D-02
   0   216    0.149626D-01    0.995852D+00   -0.191581D+01    0.114092D-01
   0   217    0.148762D-01    0.995619D+00    0.293785D+01    0.129529D-01
   0   218    0.149575D-01    0.995025D+00   -0.375025D+01    0.149141D-01
   0   219    0.152397D-01    0.993266D+00    0.278747D+01    0.185684D-01
   0   220    0.157714D-01    0.989453D+00    0.651145D+01    0.297920D-01
   0   221    0.171080D-01    0.984319D+00   -0.128672D+01    0.440897D-01
   0   222    0.192629D-01    0.977287D+00   -0.878162D-01    0.640709D-01
   0   223    0.215840D-01    0.962732D+00    0.771632D+01    0.101863D+00
   0   224    0.248380D-01    0.944093D+00   -0.887554D+01    0.146507D+00
   0   225    0.274799D-01    0.913707D+00    0.959773D+01    0.204009D+00
   0   226    0.253835D-01    0.867529D+00    0.101370D+02    0.265235D+00
   0   227    0.192989D-01    0.798278D+00    0.917649D+01    0.318306D+00
   0   228    0.116216D-01    0.705412D+00    0.524073D+01    0.356390D+00
   0   229    0.576602D-02    0.598579D+00    0.922087D-01    0.380152D+00
   0   230    0.243397D-02    0.489298D+00    0.209097D+01    0.394665D+00
   0   231    0.955166D-03    0.387013D+00    0.123465D+00    0.403709D+00
   0   232    0.348765D-03    0.297655D+00    0.176707D+00    0.409507D+00
   0   233    0.122993D-03    0.223410D+00    0.120939D+00    0.413328D+00
   0   234    0.409624D-04    0.164162D+00    0.104982D-01    0.415898D+00
   0   235    0.136486D-04    0.118410D+00    0.146005D-01    0.417650D+00
   0   236    0.431518D-05    0.840334D-01    0.264429D-02    0.418852D+00
   0   237    0.134035D-05    0.587934D-01    0.110062D-02    0.419680D+00
   0   238    0.401461D-06    0.406236D-01    0.109073D-03    0.420249D+00
   0   239    0.123385D-06    0.277638D-01    0.996659D-04    0.420639D+00
   0   240    0.364590D-07    0.187947D-01    0.172073D-04    0.420905D+00
   0   241    0.107593D-07    0.126177D-01    0.102419D-04    0.421085D+00
   0   242    0.305045D-08    0.840970D-02    0.412514D-05    0.421207D+00
   0   243    0.886366D-09    0.556994D-02    0.594190D-06    0.421288D+00
   0   244    0.255902D-09    0.366898D-02    0.601023D-07    0.421343D+00
   0   245    0.799115D-10    0.240534D-02    0.164772D-07    0.421379D+00
   0   246    0.243322D-10    0.157040D-02    0.124130D-07    0.421403D+00
   0   247    0.740468D-11    0.102160D-02    0.783921D-08    0.421418D+00
   0   248    0.219849D-11    0.662506D-03    0.162801D-08    0.421428D+00
   0   249    0.652591D-12    0.428457D-03    0.807142D-09    0.421435D+00
   0   250    0.192206D-12    0.276430D-03    0.468901D-10    0.421439D+00
   0   251    0.556759D-13    0.177973D-03    0.667916D-10    0.421442D+00
   0   252    0.158047D-13    0.114373D-03    0.543031D-11    0.421444D+00
   0   253    0.468598D-14    0.733837D-04    0.480341D-11    0.421445D+00
   0   254    0.123939D-14    0.470177D-04    0.621620D-12    0.421446D+00
   0   255    0.340590D-15    0.300874D-04    0.778298D-13    0.421446D+00
   0   256    0.895303D-16    0.192325D-04    0.116554D-12    0.421446D+00
   0   257    0.244191D-16    0.122820D-04    0.692053D-14    0.421447D+00
   0   258    0.685219D-17    0.783670D-05    0.575616D-14    0.421447D+00
   0   259    0.178771D-17    0.499658D-05    0.253488D-14    0.421447D+00
   0   260    0.474008D-18    0.318365D-05    0.438884D-15    0.421447D+00
   0   261    0.128024D-18    0.202732D-05    0.919294D-16    0.421447D+00
   0   262    0.323983D-19    0.129031D-05    0.458152D-16    0.421447D+00
   0   263    0.804099D-20    0.820854D-06    0.115646D-16    0.421447D+00
   0   264    0.211736D-20    0.521986D-06    0.190335D-17    0.421447D+00
   0   265    0.538080D-21    0.331813D-06    0.183592D-18    0.421447D+00
   0   266    0.138105D-21    0.210856D-06    0.181227D-18    0.421447D+00
   0   267    0.361909D-22    0.133953D-06    0.465088D-19    0.421447D+00
   0   268    0.884405D-23    0.850762D-07    0.119056D-19    0.421447D+00
   0   269    0.226017D-23    0.540209D-07    0.657118D-21    0.421447D+00
   0   270    0.566840D-24    0.342946D-07    0.351986D-21    0.421447D+00
   0   271    0.146942D-24    0.217675D-07    0.280187D-22    0.421447D+00
   0   272    0.362806D-25    0.138139D-07    0.182379D-22    0.421447D+00
   0   273    0.905116D-26    0.876518D-08    0.861952D-23    0.421447D+00
   0   274    0.220839D-26    0.556089D-08    0.177951D-23    0.421447D+00
   0   275    0.536035D-27    0.352755D-08    0.725376D-24    0.421447D+00
   0   276    0.130901D-27    0.223745D-08    0.184554D-24    0.421447D+00
   0   277    0.317686D-28    0.141902D-08    0.196341D-25    0.421447D+00
   0   278    0.790358D-29    0.899870D-09    0.378146D-26    0.421447D+00
   0   279    0.195163D-29    0.570601D-09    0.886688D-27    0.421447D+00
   0   280    0.469766D-30    0.361784D-09    0.697098D-27    0.421447D+00
   0   281    0.115549D-30    0.229368D-09    0.146083D-27    0.421447D+00
   0   282    0.279786D-31    0.145407D-09    0.268557D-28    0.421447D+00
   0   283    0.678868D-32    0.921733D-10    0.503092D-29    0.421447D+00
   0   284    0.170828D-32    0.584248D-10    0.204568D-29    0.421447D+00
   0   285    0.415858D-33    0.370308D-10    0.173814D-30    0.421447D+00
   0   286    0.100427D-33    0.234694D-10    0.873077D-31    0.421447D+00
   0   287    0.241604D-34    0.148736D-10    0.783231D-32    0.421447D+00
   0   288    0.591259D-35    0.942552D-11    0.438343D-32    0.421447D+00
   0   289    0.142607D-35    0.597271D-11    0.868830D-33    0.421447D+00
   0   290    0.341455D-36    0.378456D-11    0.489012D-33    0.421447D+00
   0   291    0.833111D-37    0.239794D-11    0.217275D-34    0.421447D+00
   0   292    0.196115D-37    0.151929D-11    0.135641D-34    0.421447D+00
   0   293    0.481690D-38    0.962546D-12    0.193612D-35    0.421447D+00
   0   294    0.116644D-38    0.609795D-12    0.141343D-35    0.421447D+00
   0   295    0.276382D-39    0.386302D-12    0.364249D-36    0.421447D+00
   0   296    0.673273D-40    0.244711D-12    0.481707D-37    0.421447D+00
   0   297    0.156470D-40    0.155011D-12    0.206381D-37    0.421447D+00
   0   298    0.374229D-41    0.981868D-13    0.359066D-38    0.421447D+00
   0   299    0.871491D-42    0.621912D-13    0.317499D-39    0.421447D+00
   0   300    0.215306D-42    0.393903D-13    0.217086D-39    0.421447D+00
   0   301    0.519247D-43    0.249480D-13    0.245570D-40    0.421447D+00
   0   302    0.124434D-43    0.158004D-13    0.501270D-41    0.421447D+00
   0   303    0.299178D-44    0.100066D-13    0.285466D-41    0.421447D+00
   0   304    0.724498D-45    0.633714D-14    0.795513D-42    0.421447D+00
   0   305    0.169451D-45    0.401318D-14    0.225383D-42    0.421447D+00
   0   306    0.411188D-46    0.254139D-14    0.304748D-43    0.421447D+00
   0   307    0.984676D-47    0.160933D-14    0.129626D-43    0.421447D+00
   0   308    0.235318D-47    0.101908D-14    0.278077D-44    0.421447D+00
   0   309    0.538056D-48    0.645300D-15    0.403056D-45    0.421447D+00
   0   310    0.129826D-48    0.408607D-15    0.158329D-45    0.421447D+00
   0   311    0.303748D-49    0.258728D-15    0.262188D-46    0.421447D+00
   0   312    0.754074D-50    0.163822D-15    0.612742D-47    0.421447D+00
   0   313    0.179646D-50    0.103727D-15    0.191188D-47    0.421447D+00
   0   314    0.417402D-51    0.656761D-16    0.256474D-48    0.421447D+00
   0   315    0.990298D-52    0.415830D-16    0.572670D-49    0.421447D+00
   0   316    0.239793D-52    0.263280D-16    0.282183D-49    0.421447D+00
   0   317    0.557279D-53    0.166692D-16    0.665779D-50    0.421447D+00
   0   318    0.133852D-53    0.105538D-16    0.875939D-51    0.421447D+00
   0   319    0.315758D-54    0.668181D-17    0.143849D-51    0.421447D+00
   0   320    0.744674D-55    0.423036D-17    0.264361D-52    0.421447D+00
   0   321    0.179959D-55    0.267828D-17    0.163744D-52    0.421447D+00
   0   322    0.423829D-56    0.169563D-17    0.213603D-53    0.421447D+00
   0   323    0.998239D-57    0.107350D-17    0.889218D-54    0.421447D+00
   0   324    0.236156D-57    0.679628D-18    0.909173D-55    0.421447D+00
   0   325    0.563304D-58    0.430266D-18    0.473429D-55    0.421447D+00
   0   326    0.132660D-58    0.272396D-18    0.137697D-55    0.421447D+00
   0   327    0.318338D-59    0.172449D-18    0.149543D-56    0.421447D+00
   0   328    0.769606D-60    0.109174D-18    0.624312D-57    0.421447D+00
   0   329    0.180704D-60    0.691155D-19    0.127008D-57    0.421447D+00
   0   330    0.428147D-61    0.437552D-19    0.263296D-58    0.421447D+00
   0   331    0.103764D-61    0.277002D-19    0.104477D-58    0.421447D+00
   0   332    0.242254D-62    0.175361D-19    0.160839D-59    0.421447D+00
   0   333    0.566497D-63    0.111015D-19    0.704568D-60    0.421447D+00
   0   334    0.135808D-63    0.702799D-20    0.125695D-60    0.421447D+00
   0   335    0.323690D-64    0.444915D-20    0.379207D-61    0.421447D+00
   0   336    0.764241D-65    0.281658D-20    0.974259D-62    0.421447D+00
   0   337    0.185195D-65    0.178306D-20    0.735019D-63    0.421447D+00
   0   338    0.432322D-66    0.112877D-20    0.568246D-63    0.421447D+00
   0   339    0.103433D-66    0.714573D-21    0.146806D-63    0.421447D+00
   0   340    0.244980D-67    0.452361D-21    0.180158D-64    0.421447D+00
   0   341    0.573627D-68    0.286366D-21    0.405820D-65    0.421447D+00
   0   342    0.134566D-68    0.181283D-21    0.723787D-66    0.421447D+00
   0   343    0.311018D-69    0.114760D-21    0.228360D-66    0.421447D+00
   0   344    0.746309D-70    0.726472D-22    0.431125D-67    0.421447D+00
   0   345    0.181037D-70    0.459883D-22    0.219607D-67    0.421447D+00
   0   346    0.430862D-71    0.291120D-22    0.309282D-68    0.421447D+00
   0   347    0.100892D-71    0.184287D-22    0.486387D-69    0.421447D+00
   0   348    0.242402D-72    0.116658D-22    0.590488D-70    0.421447D+00
   0   349    0.579745D-73    0.738466D-23    0.202647D-70    0.421447D+00
   0   350    0.134036D-73    0.467459D-23    0.186107D-70    0.421447D+00
   0   351    0.312599D-74    0.295905D-23    0.293245D-71    0.421447D+00
   0   352    0.755066D-75    0.187308D-23    0.913107D-72    0.421447D+00
   0   353    0.181661D-75    0.118565D-23    0.161312D-72    0.421447D+00
   0   354    0.427156D-76    0.750506D-24    0.296522D-73    0.421447D+00
   0   355    0.100405D-76    0.475057D-24    0.389884D-74    0.421447D+00
   0   356    0.245439D-77    0.300699D-24    0.102297D-74    0.421447D+00
   0   357    0.575272D-78    0.190333D-24    0.554298D-75    0.421447D+00
   0   358    0.137673D-78    0.120473D-24    0.961020D-76    0.421447D+00
   0   359    0.318355D-79    0.762532D-25    0.321962D-76    0.421447D+00
   0   360    0.743527D-80    0.482638D-25    0.687041D-77    0.421447D+00
   0   361    0.174214D-80    0.305477D-25    0.214563D-77    0.421447D+00
   0   362    0.418270D-81    0.193343D-25    0.483753D-78    0.421447D+00
   0   363    0.984429D-82    0.122369D-25    0.116768D-78    0.421447D+00
   0   364    0.242566D-82    0.774476D-26    0.137385D-79    0.421447D+00
   0   365    0.571282D-83    0.490159D-26    0.821932D-80    0.421447D+00
   0   366    0.134212D-83    0.310211D-26    0.985140D-81    0.421447D+00
   0   367    0.317632D-84    0.196323D-26    0.244930D-81    0.421447D+00
   0   368    0.753010D-85    0.124244D-26    0.861528D-82    0.421447D+00
   0   369    0.174758D-85    0.786270D-27    0.222509D-82    0.421447D+00
   0   370    0.406192D-86    0.497576D-27    0.503489D-83    0.421447D+00
   0   371    0.985345D-87    0.314875D-27    0.230709D-84    0.421447D+00
   0   372    0.219782D-87    0.199254D-27    0.174278D-84    0.421447D+00
   0   373    0.522771D-88    0.126086D-27    0.769927D-85    0.421447D+00
   0   374    0.126093D-88    0.797843D-28    0.177139D-85    0.421447D+00
   0   375    0.301042D-89    0.504844D-28    0.437668D-86    0.421447D+00
   0   376    0.699236D-90    0.319438D-28    0.479440D-87    0.421447D+00
   0   377    0.158517D-90    0.202118D-28    0.242710D-87    0.421447D+00
   0   378    0.390797D-91    0.127883D-28    0.141132D-88    0.421447D+00
   0   379    0.936677D-92    0.809115D-29    0.126196D-88    0.421447D+00
   0   380    0.214434D-92    0.511912D-29    0.808763D-90    0.421447D+00
   0   381    0.508558D-93    0.323867D-29    0.508018D-90    0.421447D+00
   0   382    0.120244D-93    0.204893D-29    0.917125D-91    0.421447D+00
   0   383    0.286297D-94    0.129620D-29    0.147917D-91    0.421447D+00
   0   384    0.676978D-95    0.819985D-30    0.216878D-92    0.421447D+00
   0   385    0.156449D-95    0.518709D-30    0.147216D-92    0.421447D+00
   0   386    0.374943D-96    0.328115D-30    0.448597D-93    0.421447D+00
   0   387    0.891155D-97    0.207545D-30    0.398980D-94    0.421447D+00
   0   388    0.202398D-97    0.131274D-30    0.860883D-95    0.421447D+00
   0   389    0.474101D-98    0.830274D-31    0.322884D-95    0.421447D+00
   0   390    0.111501D-98    0.525085D-31    0.119966D-95    0.421447D+00
   0   391    0.264704D-99    0.332031D-31    0.104171D-96    0.421447D+00
   0   392    0.623341-100    0.209897D-31    0.308844D-97    0.421447D+00
   0   393    0.147839-100    0.132604D-31    0.142735D-97    0.421447D+00
   0   394    0.347632-101    0.836459D-32    0.475888D-98    0.421447D+00
   0   395    0.817303-102    0.525654D-32    0.102989D-98    0.421447D+00
   0   396    0.195839-102    0.327219D-32    0.133902D-99    0.421447D+00
   0   397    0.444610-103    0.198749D-32    0.188224-100    0.421447D+00