variables =  "IG"  "JG"  "PHI"  "Temp."  "Latent_heat"  "mm"
ZONE  I=  401  J=  101
   0     0    0.100000D+01    0.905208D+00    0.000000D+00    0.217346D+00
   0     1    0.100000D+01    0.905208D+00    0.000000D+00    0.217346D+00
   0     2    0.100000D+01    0.905407D+00    0.000000D+00    0.217046D+00
   0     3    0.100000D+01    0.905804D+00    0.000000D+00    0.216444D+00
   0     4    0.100000D+01    0.906398D+00    0.000000D+00    0.215539D+00
   0     5    0.100000D+01    0.907188D+00    0.000000D+00    0.214328D+00
   0     6    0.100000D+01    0.908171D+00    0.000000D+00    0.212807D+00
   0     7    0.100000D+01    0.909345D+00    0.000000D+00    0.210972D+00
   0     8    0.100000D+01    0.910707D+00    0.000000D+00    0.208816D+00
   0     9    0.100000D+01    0.912253D+00    0.000000D+00    0.206333D+00
   0    10    0.100000D+01    0.913979D+00    0.000000D+00    0.203515D+00
   0    11    0.100000D+01    0.915881D+00    0.000000D+00    0.200354D+00
   0    12    0.100000D+01    0.917954D+00    0.000000D+00    0.196840D+00
   0    13    0.100000D+01    0.920194D+00    0.000000D+00    0.192963D+00
   0    14    0.100000D+01    0.922594D+00    0.000000D+00    0.188713D+00
   0    15    0.100000D+01    0.925150D+00    0.000000D+00    0.184077D+00
   0    16    0.100000D+01    0.927856D+00    0.000000D+00    0.179043D+00
   0    17    0.100000D+01    0.930707D+00    0.000000D+00    0.173599D+00
   0    18    0.100000D+01    0.933696D+00    0.000000D+00    0.167731D+00
   0    19    0.100000D+01    0.936820D+00    0.000000D+00    0.161425D+00
   0    20    0.100000D+01    0.940073D+00    0.000000D+00    0.154668D+00
   0    21    0.100000D+01    0.943450D+00    0.133227D-10    0.147443D+00
   0    22    0.100000D+01    0.946948D+00   -0.133227D-10    0.139736D+00
   0    23    0.100000D+01    0.950565D+00   -0.706102D-09    0.131529D+00
   0    24    0.100000D+01    0.954300D+00    0.515588D-08    0.122802D+00
   0    25    0.100000D+01    0.958157D+00    0.580735D-07    0.113531D+00
   0    26    0.100000D+01    0.962140D+00   -0.409286D-06    0.103684D+00
   0    27    0.100000D+01    0.966263D+00    0.259790D-05    0.932157D-01
   0    28    0.100000D+01    0.970544D+00    0.183787D-04    0.820644D-01
   0    29    0.100000D+01    0.975017D+00    0.223953D-04    0.701369D-01
   0    30    0.999999D+00    0.979729D+00   -0.136400D-03    0.572955D-01
   0    31    0.999990D+00    0.984757D+00    0.279568D-02    0.433343D-01
   0    32    0.999939D+00    0.990214D+00    0.217947D-01    0.279460D-01
   0    33    0.999614D+00    0.996281D+00    0.174884D+00    0.106551D-01
   0    34    0.997575D+00    0.100330D+01   -0.655791D+00   -0.944477D-02
   0    35    0.984931D+00    0.101177D+01    0.100967D+02   -0.337250D-01
   0    36    0.915664D+00    0.102242D+01    0.104247D+02   -0.636366D-01
   0    37    0.604158D+00    0.103127D+01    0.152924D+02   -0.837064D-01
   0    38    0.147422D+00    0.103367D+01    0.383286D+02   -0.909967D-01
   0    39    0.358680D-01    0.102650D+01   -0.862719D+01   -0.752074D-01
   0    40    0.135171D-01    0.102066D+01   -0.256043D+01   -0.582155D-01
   0    41    0.892065D-02    0.101612D+01    0.398445D+01   -0.458753D-01
   0    42    0.876616D-02    0.101344D+01    0.387307D+00   -0.385239D-01
   0    43    0.948781D-02    0.101128D+01   -0.399844D+01   -0.320600D-01
   0    44    0.100954D-01    0.100789D+01   -0.604263D+00   -0.220769D-01
   0    45    0.106088D-01    0.100563D+01    0.523876D+01   -0.158517D-01
   0    46    0.110458D-01    0.100508D+01   -0.879756D+00   -0.149591D-01
   0    47    0.115756D-01    0.100487D+01    0.499903D+01   -0.143862D-01
   0    48    0.112930D-01    0.100380D+01    0.620203D+01   -0.115006D-01
   0    49    0.115346D-01    0.100341D+01   -0.867393D+00   -0.101795D-01
   0    50    0.118236D-01    0.100324D+01    0.141778D+00   -0.956061D-02
   0    51    0.122043D-01    0.100357D+01   -0.581914D+01   -0.100394D-01
   0    52    0.122503D-01    0.100222D+01    0.116103D+01   -0.659211D-02
   0    53    0.123689D-01    0.100203D+01   -0.652587D+01   -0.560497D-02
   0    54    0.123985D-01    0.100191D+01    0.331661D+01   -0.503551D-02
   0    55    0.127239D-01    0.100209D+01   -0.248667D+01   -0.563123D-02
   0    56    0.126203D-01    0.100119D+01   -0.217630D+01   -0.316322D-02
   0    57    0.130838D-01    0.100110D+01    0.111224D+01   -0.353534D-02
   0    58    0.129747D-01    0.100097D+01   -0.582329D+01   -0.246516D-02
   0    59    0.131692D-01    0.999762D+00    0.525345D+01    0.542256D-03
   0    60    0.136081D-01    0.999967D+00   -0.669817D+01    0.167350D-03
   0    61    0.134913D-01    0.999560D+00    0.682119D+01    0.130046D-02
   0    62    0.136384D-01    0.999496D+00   -0.616892D+01    0.207434D-02
   0    63    0.136010D-01    0.999603D+00    0.402766D+01    0.863655D-03
   0    64    0.141016D-01    0.999716D+00    0.513848D+01    0.636788D-03
   0    65    0.134826D-01    0.999027D+00   -0.679221D+01    0.224364D-02
   0    66    0.136309D-01    0.998967D+00   -0.107596D+01    0.344230D-02
   0    67    0.142233D-01    0.998885D+00   -0.811686D+00    0.265221D-02
   0    68    0.144988D-01    0.998518D+00   -0.231683D+01    0.479909D-02
   0    69    0.144864D-01    0.999747D+00    0.391254D+01    0.124456D-02
   0    70    0.144267D-01    0.999252D+00    0.813910D+00    0.204040D-02
   0    71    0.145366D-01    0.998755D+00   -0.244437D+01    0.381941D-02
   0    72    0.144822D-01    0.997944D+00    0.393133D+01    0.672209D-02
   0    73    0.147827D-01    0.997297D+00   -0.338083D+00    0.710549D-02
   0    74    0.144229D-01    0.997551D+00    0.609125D+01    0.671124D-02
   0    75    0.145831D-01    0.997912D+00   -0.756403D+01    0.609581D-02
   0    76    0.144757D-01    0.996721D+00   -0.580118D+01    0.905265D-02
   0    77    0.148087D-01    0.995458D+00   -0.269266D+01    0.130649D-01
   0    78    0.147880D-01    0.996684D+00    0.417495D+01    0.982553D-02
   0    79    0.145690D-01    0.997057D+00    0.733947D+01    0.897622D-02
   0    80    0.148292D-01    0.997351D+00    0.451255D+01    0.817002D-02
   0    81    0.153955D-01    0.996894D+00    0.309864D-01    0.930075D-02
   0    82    0.153563D-01    0.997229D+00   -0.278656D+01    0.821626D-02
   0    83    0.151315D-01    0.996924D+00   -0.394627D+01    0.917982D-02
   0    84    0.149903D-01    0.996537D+00   -0.502772D+00    0.102545D-01
   0    85    0.148839D-01    0.997369D+00    0.259140D+01    0.832635D-02
   0    86    0.148342D-01    0.997833D+00   -0.559888D+01    0.641525D-02
   0    87    0.152136D-01    0.997007D+00   -0.245855D+01    0.790805D-02
   0    88    0.148653D-01    0.996726D+00    0.946101D+01    0.959953D-02
   0    89    0.147255D-01    0.996623D+00   -0.377011D+01    0.899150D-02
   0    90    0.150851D-01    0.996946D+00    0.652820D+01    0.853173D-02
   0    91    0.150279D-01    0.997415D+00    0.934370D+01    0.728065D-02
   0    92    0.150704D-01    0.996769D+00   -0.148923D+01    0.934607D-02
   0    93    0.152571D-01    0.997067D+00    0.926380D-01    0.817530D-02
   0    94    0.150811D-01    0.997066D+00    0.672337D+01    0.900254D-02
   0    95    0.148173D-01    0.997117D+00    0.470193D+01    0.764530D-02
   0    96    0.148167D-01    0.996256D+00    0.423271D+01    0.103068D-01
   0    97    0.151210D-01    0.996261D+00    0.234862D+01    0.113858D-01
   0    98    0.153406D-01    0.995033D+00    0.315149D+01    0.140958D-01
   0    99    0.149368D-01    0.995355D+00   -0.456914D+01    0.130554D-01
   0   100    0.149039D-01    0.996306D+00   -0.330446D+00    0.103783D-01
   0   101    0.149914D-01    0.996615D+00    0.564200D+01    0.100287D-01
   0   102    0.152930D-01    0.997519D+00    0.616720D+01    0.654093D-02
   0   103    0.151168D-01    0.997450D+00    0.639572D+01    0.694512D-02
   0   104    0.151841D-01    0.998172D+00    0.660665D+01    0.585630D-02
   0   105    0.149920D-01    0.998036D+00   -0.636354D+01    0.509169D-02
   0   106    0.152783D-01    0.997159D+00    0.863892D+01    0.723975D-02
   0   107    0.152466D-01    0.995934D+00    0.550459D+01    0.112976D-01
   0   108    0.154194D-01    0.996796D+00   -0.677584D+00    0.867398D-02
   0   109    0.154371D-01    0.996878D+00   -0.589976D+01    0.841734D-02
   0   110    0.153197D-01    0.995631D+00   -0.652883D+01    0.124752D-01
   0   111    0.152184D-01    0.996373D+00    0.324024D+01    0.108893D-01
   0   112    0.153482D-01    0.995716D+00    0.409059D+01    0.115603D-01
   0   113    0.153321D-01    0.996601D+00   -0.331490D+01    0.899917D-02
   0   114    0.151475D-01    0.997157D+00    0.744905D+01    0.783189D-02
   0   115    0.152895D-01    0.996118D+00    0.575927D+01    0.112192D-01
   0   116    0.155490D-01    0.996379D+00    0.410766D+01    0.997660D-02
   0   117    0.150577D-01    0.997182D+00   -0.221248D+01    0.877574D-02
   0   118    0.152670D-01    0.996717D+00   -0.318598D+00    0.880284D-02
   0   119    0.152739D-01    0.996874D+00    0.307383D+01    0.846652D-02
   0   120    0.153064D-01    0.996247D+00    0.670090D+01    0.114563D-01
   0   121    0.150697D-01    0.995338D+00   -0.860906D+01    0.133541D-01
   0   122    0.150138D-01    0.995855D+00    0.463102D+01    0.123340D-01
   0   123    0.149122D-01    0.996061D+00    0.536300D+01    0.107624D-01
   0   124    0.145710D-01    0.997031D+00    0.477970D+01    0.876268D-02
   0   125    0.147372D-01    0.997238D+00    0.896163D+01    0.851270D-02
   0   126    0.151531D-01    0.996859D+00    0.242530D+01    0.826039D-02
   0   127    0.151109D-01    0.997179D+00    0.501735D+00    0.783455D-02
   0   128    0.152805D-01    0.996543D+00   -0.399981D+01    0.103621D-01
   0   129    0.145752D-01    0.996268D+00    0.285898D+00    0.109677D-01
   0   130    0.151357D-01    0.996259D+00   -0.865238D+00    0.101272D-01
   0   131    0.149410D-01    0.997026D+00   -0.616112D+01    0.848745D-02
   0   132    0.151732D-01    0.996748D+00    0.586042D+01    0.888485D-02
   0   133    0.152299D-01    0.996373D+00   -0.491861D+01    0.977202D-02
   0   134    0.145951D-01    0.996758D+00    0.383741D+01    0.884792D-02
   0   135    0.151204D-01    0.997124D+00    0.325145D+01    0.837115D-02
   0   136    0.145988D-01    0.998031D+00   -0.200130D+00    0.557091D-02
   0   137    0.146137D-01    0.998503D+00    0.241853D+01    0.443023D-02
   0   138    0.147015D-01    0.998499D+00    0.381421D+01    0.470705D-02
   0   139    0.146445D-01    0.996683D+00    0.421565D+01    0.909720D-02
   0   140    0.152664D-01    0.994789D+00    0.550026D+01    0.148858D-01
   0   141    0.149859D-01    0.995113D+00    0.560448D+01    0.134978D-01
   0   142    0.144385D-01    0.997081D+00   -0.639737D+01    0.900377D-02
   0   143    0.147044D-01    0.997442D+00   -0.476604D+01    0.720439D-02
   0   144    0.152883D-01    0.997484D+00   -0.176347D+01    0.691991D-02
   0   145    0.148927D-01    0.997047D+00    0.707181D+01    0.903516D-02
   0   146    0.152963D-01    0.997427D+00   -0.225352D+01    0.738442D-02
   0   147    0.145268D-01    0.998014D+00    0.507989D+01    0.536869D-02
   0   148    0.146417D-01    0.998896D+00    0.494494D+01    0.344702D-02
   0   149    0.147741D-01    0.997700D+00   -0.695009D+01    0.691998D-02
   0   150    0.147937D-01    0.996989D+00    0.361731D+00    0.815335D-02
   0   151    0.149209D-01    0.996271D+00   -0.859913D+01    0.106765D-01
   0   152    0.148337D-01    0.997205D+00    0.958213D+01    0.842922D-02
   0   153    0.149127D-01    0.996939D+00   -0.130216D+01    0.923953D-02
   0   154    0.147507D-01    0.997706D+00    0.459365D+01    0.716400D-02
   0   155    0.149674D-01    0.997133D+00    0.868385D+01    0.786628D-02
   0   156    0.154352D-01    0.996562D+00   -0.399727D+00    0.925180D-02
   0   157    0.150598D-01    0.997709D+00   -0.816301D+01    0.706137D-02
   0   158    0.144305D-01    0.997536D+00   -0.619200D+01    0.746580D-02
   0   159    0.147297D-01    0.997417D+00    0.472736D+01    0.718222D-02
   0   160    0.151735D-01    0.997179D+00    0.336979D+01    0.819428D-02
   0   161    0.149105D-01    0.996192D+00   -0.554472D+01    0.105795D-01
   0   162    0.150884D-01    0.997767D+00    0.330517D+01    0.682215D-02
   0   163    0.144916D-01    0.998471D+00    0.403561D+01    0.496598D-02
   0   164    0.144849D-01    0.999292D+00    0.550074D+01    0.199670D-02
   0   165    0.144161D-01    0.999123D+00   -0.390391D+01    0.320294D-02
   0   166    0.143271D-01    0.998819D+00   -0.565360D+01    0.351338D-02
   0   167    0.146185D-01    0.998730D+00    0.203252D+01    0.382817D-02
   0   168    0.143292D-01    0.998320D+00    0.602494D+01    0.505180D-02
   0   169    0.143113D-01    0.997613D+00   -0.194111D+01    0.666082D-02
   0   170    0.144505D-01    0.998043D+00   -0.417557D+01    0.525424D-02
   0   171    0.148237D-01    0.998162D+00    0.629529D+01    0.572174D-02
   0   172    0.145102D-01    0.998771D+00   -0.828885D+01    0.406375D-02
   0   173    0.145165D-01    0.997813D+00   -0.525750D+01    0.646088D-02
   0   174    0.143520D-01    0.997318D+00   -0.117205D+01    0.782013D-02
   0   175    0.144090D-01    0.997778D+00    0.238030D+01    0.604947D-02
   0   176    0.143793D-01    0.998391D+00   -0.779253D+01    0.403044D-02
   0   177    0.142633D-01    0.999003D+00   -0.255619D+01    0.285499D-02
   0   178    0.143377D-01    0.998299D+00   -0.447063D+01    0.557877D-02
   0   179    0.141287D-01    0.997790D+00    0.850582D+00    0.608477D-02
   0   180    0.139935D-01    0.997952D+00   -0.534884D+01    0.622941D-02
   0   181    0.144238D-01    0.998463D+00   -0.288432D+01    0.375962D-02
   0   182    0.144267D-01    0.999173D+00   -0.358292D+01    0.178719D-02
   0   183    0.141428D-01    0.998811D+00   -0.695339D+01    0.388101D-02
   0   184    0.141664D-01    0.998689D+00    0.735878D+00    0.448293D-02
   0   185    0.145116D-01    0.998368D+00   -0.331356D+01    0.403787D-02
   0   186    0.143263D-01    0.998840D+00   -0.671562D+01    0.298483D-02
   0   187    0.143502D-01    0.998219D+00    0.409507D+01    0.464388D-02
   0   188    0.142953D-01    0.998276D+00   -0.336817D+01    0.482874D-02
   0   189    0.142023D-01    0.998494D+00   -0.334959D+01    0.424376D-02
   0   190    0.143514D-01    0.997698D+00    0.521660D+01    0.681429D-02
   0   191    0.144295D-01    0.998591D+00    0.655095D+01    0.457179D-02
   0   192    0.140270D-01    0.998316D+00    0.599435D+01    0.547690D-02
   0   193    0.142802D-01    0.999243D+00    0.702829D+01    0.224598D-02
   0   194    0.142277D-01    0.998321D+00    0.142460D+01    0.424822D-02
   0   195    0.139890D-01    0.999169D+00   -0.310910D+01    0.298270D-02
   0   196    0.141089D-01    0.998978D+00   -0.713491D+01    0.286768D-02
   0   197    0.141897D-01    0.999774D+00   -0.724986D+01   -0.146517D-03
   0   198    0.139105D-01    0.100056D+01    0.386853D+01   -0.176018D-02
   0   199    0.141429D-01    0.999438D+00   -0.140356D+01    0.191607D-02
   0   200    0.140397D-01    0.998346D+00    0.497817D+01    0.494537D-02
   0   201    0.139219D-01    0.997491D+00   -0.529287D+01    0.700130D-02
   0   202    0.137481D-01    0.997462D+00   -0.175239D+01    0.710412D-02
   0   203    0.137587D-01    0.998061D+00   -0.344037D+01    0.574842D-02
   0   204    0.140253D-01    0.996167D+00    0.892890D+00    0.109336D-01
   0   205    0.141144D-01    0.997144D+00    0.255460D+01    0.748913D-02
   0   206    0.139341D-01    0.999937D+00   -0.155868D+01    0.346202D-03
   0   207    0.141999D-01    0.998937D+00    0.861965D+01    0.272183D-02
   0   208    0.146016D-01    0.997818D+00   -0.885141D+01    0.576048D-02
   0   209    0.142930D-01    0.997994D+00   -0.332165D+00    0.601221D-02
   0   210    0.143013D-01    0.998343D+00    0.309644D+01    0.515730D-02
   0   211    0.141875D-01    0.997725D+00    0.335258D+01    0.697006D-02
   0   212    0.146137D-01    0.997781D+00   -0.829152D+01    0.629636D-02
   0   213    0.143967D-01    0.997852D+00   -0.868780D+00    0.698230D-02
   0   214    0.147764D-01    0.998416D+00    0.507085D+01    0.492306D-02
   0   215    0.148345D-01    0.999257D+00    0.642995D+01    0.270521D-02
   0   216    0.144875D-01    0.998534D+00    0.167417D+01    0.399823D-02
   0   217    0.141085D-01    0.100003D+01    0.559447D+01   -0.723977D-03
   0   218    0.138895D-01    0.100036D+01   -0.621970D+01   -0.867968D-03
   0   219    0.135921D-01    0.100042D+01   -0.308162D+00   -0.111130D-02
   0   220    0.134150D-01    0.999813D+00    0.614551D+01    0.118010D-02
   0   221    0.135043D-01    0.998817D+00    0.354097D+01    0.300478D-02
   0   222    0.139739D-01    0.998557D+00   -0.606614D+01    0.435382D-02
   0   223    0.136857D-01    0.998431D+00   -0.648576D+01    0.390124D-02
   0   224    0.137927D-01    0.999441D+00    0.585411D+01    0.213004D-02
   0   225    0.141129D-01    0.996402D+00    0.743584D+01    0.104972D-01
   0   226    0.143859D-01    0.996323D+00   -0.458091D+00    0.110029D-01
   0   227    0.146174D-01    0.996037D+00    0.191874D+01    0.111013D-01
   0   228    0.154037D-01    0.995685D+00    0.457573D+01    0.119117D-01
   0   229    0.162284D-01    0.992575D+00    0.428015D+01    0.209339D-01
   0   230    0.168891D-01    0.990354D+00    0.635543D+01    0.280479D-01
   0   231    0.176498D-01    0.986837D+00   -0.608896D+01    0.373821D-01
   0   232    0.197821D-01    0.980023D+00    0.771963D+01    0.572399D-01
   0   233    0.230713D-01    0.969822D+00    0.560003D+01    0.839799D-01
   0   234    0.268930D-01    0.949310D+00   -0.453379D+01    0.134797D+00
   0   235    0.285473D-01    0.920512D+00   -0.762052D+01    0.193317D+00
   0   236    0.274789D-01    0.877223D+00    0.166840D+02    0.254183D+00
   0   237    0.206304D-01    0.810800D+00    0.846453D+01    0.310996D+00
   0   238    0.127397D-01    0.721515D+00   -0.788064D+00    0.351440D+00
   0   239    0.638950D-02    0.616345D+00    0.624830D+01    0.377044D+00
   0   240    0.281300D-02    0.506378D+00    0.142653D+01    0.392799D+00
   0   241    0.114204D-02    0.402290D+00    0.125289D+01    0.402549D+00
   0   242    0.413478D-03    0.310462D+00    0.490094D+00    0.408766D+00
   0   243    0.149375D-03    0.233661D+00    0.160552D+00    0.412844D+00
   0   244    0.500570D-04    0.172073D+00    0.319159D-01    0.415576D+00
   0   245    0.165204D-04    0.124338D+00    0.169957D-01    0.417433D+00
   0   246    0.528358D-05    0.883648D-01    0.246388D-02    0.418706D+00
   0   247    0.165354D-05    0.618923D-01    0.122011D-02    0.419581D+00
   0   248    0.494636D-06    0.428019D-01    0.449389D-03    0.420182D+00
   0   249    0.148348D-06    0.292720D-01    0.455582D-04    0.420594D+00
   0   250    0.438752D-07    0.198251D-01    0.357332D-04    0.420875D+00
   0   251    0.124938D-07    0.133134D-01    0.107597D-04    0.421065D+00
   0   252    0.356367D-08    0.887452D-02    0.287173D-05    0.421194D+00
   0   253    0.105023D-08    0.587762D-02    0.186096D-06    0.421280D+00
   0   254    0.301910D-09    0.387097D-02    0.363458D-06    0.421337D+00
   0   255    0.951406D-10    0.253699D-02    0.769967D-07    0.421375D+00
   0   256    0.286880D-10    0.165566D-02    0.183881D-07    0.421400D+00
   0   257    0.886630D-11    0.107652D-02    0.683345D-08    0.421417D+00
   0   258    0.258033D-11    0.697710D-03    0.276112D-08    0.421427D+00
   0   259    0.787863D-12    0.450936D-03    0.556262D-09    0.421434D+00
   0   260    0.230708D-12    0.290735D-03    0.226879D-09    0.421439D+00
   0   261    0.684214D-13    0.187052D-03    0.813331D-10    0.421442D+00
   0   262    0.193173D-13    0.120122D-03    0.151432D-10    0.421444D+00
   0   263    0.539756D-14    0.770170D-04    0.708565D-11    0.421445D+00
   0   264    0.150130D-14    0.493106D-04    0.104494D-11    0.421446D+00
   0   265    0.399742D-15    0.315327D-04    0.401776D-12    0.421446D+00
   0   266    0.109571D-15    0.201426D-04    0.783642D-13    0.421446D+00
   0   267    0.294273D-16    0.128547D-04    0.128901D-13    0.421447D+00
   0   268    0.774953D-17    0.819692D-05    0.942490D-14    0.421447D+00
   0   269    0.209268D-17    0.522305D-05    0.173142D-14    0.421447D+00
   0   270    0.553571D-18    0.332598D-05    0.252973D-15    0.421447D+00
   0   271    0.146768D-18    0.211676D-05    0.188588D-15    0.421447D+00
   0   272    0.387164D-19    0.134651D-05    0.364195D-16    0.421447D+00
   0   273    0.101495D-19    0.856161D-06    0.108607D-16    0.421447D+00
   0   274    0.259531D-20    0.544168D-06    0.192585D-17    0.421447D+00
   0   275    0.652839D-21    0.345750D-06    0.674248D-18    0.421447D+00
   0   276    0.170063D-21    0.219614D-06    0.373616D-19    0.421447D+00
   0   277    0.421471D-22    0.139457D-06    0.155232D-19    0.421447D+00
   0   278    0.104284D-22    0.885354D-07    0.119399D-19    0.421447D+00
   0   279    0.269190D-23    0.561955D-07    0.277300D-20    0.421447D+00
   0   280    0.671665D-24    0.356620D-07    0.908126D-21    0.421447D+00
   0   281    0.167167D-24    0.226275D-07    0.458379D-22    0.421447D+00
   0   282    0.424972D-25    0.143550D-07    0.382616D-22    0.421447D+00
   0   283    0.104995D-25    0.910569D-08    0.138413D-22    0.421447D+00
   0   284    0.266070D-26    0.577526D-08    0.159780D-23    0.421447D+00
   0   285    0.656229D-27    0.366256D-08    0.615392D-24    0.421447D+00
   0   286    0.161277D-27    0.232251D-08    0.846870D-25    0.421447D+00
   0   287    0.396675D-28    0.147263D-08    0.279735D-25    0.421447D+00
   0   288    0.951595D-29    0.933681D-09    0.960487D-26    0.421447D+00
   0   289    0.233738D-29    0.591934D-09    0.159104D-26    0.421447D+00
   0   290    0.576208D-30    0.375251D-09    0.723021D-27    0.421447D+00
   0   291    0.140699D-30    0.237874D-09    0.106369D-27    0.421447D+00
   0   292    0.332713D-31    0.150782D-09    0.186112D-28    0.421447D+00
   0   293    0.777548D-32    0.955723D-10    0.318437D-29    0.421447D+00
   0   294    0.195928D-32    0.605754D-10    0.267522D-29    0.421447D+00
   0   295    0.481596D-33    0.383923D-10    0.295968D-30    0.421447D+00
   0   296    0.117814D-33    0.243318D-10    0.820612D-31    0.421447D+00
   0   297    0.282835D-34    0.154202D-10    0.416561D-31    0.421447D+00
   0   298    0.679770D-35    0.977221D-11    0.256256D-32    0.421447D+00
   0   299    0.164820D-35    0.619271D-11    0.195860D-32    0.421447D+00
   0   300    0.389645D-36    0.392424D-11    0.230614D-33    0.421447D+00
   0   301    0.947932D-37    0.248667D-11    0.737235D-34    0.421447D+00
   0   302    0.226712D-37    0.157568D-11    0.107925D-34    0.421447D+00
   0   303    0.538779D-38    0.998401D-12    0.445001D-35    0.421447D+00
   0   304    0.131615D-38    0.632601D-12    0.185036D-35    0.421447D+00
   0   305    0.319462D-39    0.400814D-12    0.156276D-36    0.421447D+00
   0   306    0.762655D-40    0.253948D-12    0.103472D-36    0.421447D+00
   0   307    0.184566D-40    0.160892D-12    0.141366D-37    0.421447D+00
   0   308    0.442013D-41    0.101932D-12    0.223702D-38    0.421447D+00
   0   309    0.103693D-41    0.645769D-13    0.119877D-38    0.421447D+00
   0   310    0.257178D-42    0.409102D-13    0.303681D-39    0.421447D+00
   0   311    0.621774D-43    0.259163D-13    0.733661D-40    0.421447D+00
   0   312    0.147606D-43    0.164174D-13    0.160386D-40    0.421447D+00
   0   313    0.353846D-44    0.103998D-13    0.429922D-41    0.421447D+00
   0   314    0.851584D-45    0.658765D-14    0.538648D-42    0.421447D+00
   0   315    0.196314D-45    0.417279D-14    0.158670D-42    0.421447D+00
   0   316    0.464914D-46    0.264309D-14    0.314212D-43    0.421447D+00
   0   317    0.109114D-46    0.167412D-14    0.972691D-44    0.421447D+00
   0   318    0.266721D-47    0.106035D-14    0.176706D-44    0.421447D+00
   0   319    0.639996D-48    0.671586D-15    0.783640D-45    0.421447D+00
   0   320    0.148427D-48    0.425348D-15    0.226299D-45    0.421447D+00
   0   321    0.344815D-49    0.269387D-15    0.493342D-46    0.421447D+00
   0   322    0.854521D-50    0.170608D-15    0.324026D-47    0.421447D+00
   0   323    0.203174D-50    0.108047D-15    0.138576D-47    0.421447D+00
   0   324    0.472058D-51    0.684250D-16    0.591888D-48    0.421447D+00
   0   325    0.114787D-51    0.433321D-16    0.133594D-48    0.421447D+00
   0   326    0.264267D-52    0.274407D-16    0.186444D-49    0.421447D+00
   0   327    0.637325D-53    0.173770D-16    0.806941D-50    0.421447D+00
   0   328    0.146424D-53    0.110038D-16    0.941700D-51    0.421447D+00
   0   329    0.342365D-54    0.696798D-17    0.370270D-51    0.421447D+00
   0   330    0.827790D-55    0.441228D-17    0.434615D-52    0.421447D+00
   0   331    0.199856D-55    0.279391D-17    0.100508D-52    0.421447D+00
   0   332    0.491973D-56    0.176911D-17    0.162562D-53    0.421447D+00
   0   333    0.114233D-56    0.112019D-17    0.173210D-53    0.421447D+00
   0   334    0.272118D-57    0.709287D-18    0.144399D-54    0.421447D+00
   0   335    0.653989D-58    0.449105D-18    0.616560D-55    0.421447D+00
   0   336    0.157210D-58    0.284360D-18    0.435411D-56    0.421447D+00
   0   337    0.373843D-59    0.180047D-18    0.104487D-56    0.421447D+00
   0   338    0.876647D-60    0.113998D-18    0.661140D-57    0.421447D+00
   0   339    0.201272D-60    0.721779D-19    0.287223D-57    0.421447D+00
   0   340    0.494154D-61    0.456992D-19    0.545260D-58    0.421447D+00
   0   341    0.116708D-61    0.289340D-19    0.157601D-58    0.421447D+00
   0   342    0.278759D-62    0.183192D-19    0.267077D-59    0.421447D+00
   0   343    0.648914D-63    0.115985D-19    0.653785D-60    0.421447D+00
   0   344    0.157663D-63    0.734330D-20    0.615144D-61    0.421447D+00
   0   345    0.372827D-64    0.464922D-20    0.375488D-61    0.421447D+00
   0   346    0.903355D-65    0.294352D-20    0.706527D-62    0.421447D+00
   0   347    0.205889D-65    0.186359D-20    0.137058D-62    0.421447D+00
   0   348    0.495201D-66    0.117987D-20    0.135714D-63    0.421447D+00
   0   349    0.116386D-66    0.746988D-21    0.139950D-63    0.421447D+00
   0   350    0.275400D-67    0.472925D-21    0.161288D-64    0.421447D+00
   0   351    0.632175D-68    0.299412D-21    0.942012D-65    0.421447D+00
   0   352    0.148003D-68    0.189559D-21    0.219416D-65    0.421447D+00
   0   353    0.355695D-69    0.120010D-21    0.208006D-66    0.421447D+00
   0   354    0.870513D-70    0.759782D-22    0.554215D-67    0.421447D+00
   0   355    0.200541D-70    0.481016D-22    0.101840D-67    0.421447D+00
   0   356    0.479885D-71    0.304529D-22    0.318869D-68    0.421447D+00
   0   357    0.116853D-71    0.192795D-22    0.616976D-69    0.421447D+00
   0   358    0.273001D-72    0.122057D-22    0.114018D-69    0.421447D+00
   0   359    0.630205D-73    0.772727D-23    0.606684D-70    0.421447D+00
   0   360    0.149952D-73    0.489202D-23    0.109548D-70    0.421447D+00
   0   361    0.357335D-74    0.309705D-23    0.326132D-71    0.421447D+00
   0   362    0.839301D-75    0.196068D-23    0.119097D-71    0.421447D+00
   0   363    0.198935D-75    0.124126D-23    0.260764D-72    0.421447D+00
   0   364    0.466084D-76    0.785812D-24    0.171833D-73    0.421447D+00
   0   365    0.108726D-76    0.497474D-24    0.157011D-73    0.421447D+00
   0   366    0.257613D-77    0.314934D-24    0.355678D-74    0.421447D+00
   0   367    0.607317D-78    0.199373D-24    0.254354D-75    0.421447D+00
   0   368    0.139906D-78    0.126215D-24    0.905744D-76    0.421447D+00
   0   369    0.336949D-79    0.799008D-25    0.349840D-76    0.421447D+00
   0   370    0.776427D-80    0.505811D-25    0.326770D-77    0.421447D+00
   0   371    0.185410D-80    0.320201D-25    0.144080D-77    0.421447D+00
   0   372    0.443448D-81    0.202699D-25    0.198737D-78    0.421447D+00
   0   373    0.106689D-81    0.128315D-25    0.573745D-79    0.421447D+00
   0   374    0.258566D-82    0.812268D-26    0.217324D-79    0.421447D+00
   0   375    0.602396D-83    0.514181D-26    0.597932D-80    0.421447D+00
   0   376    0.139406D-83    0.325483D-26    0.507181D-81    0.421447D+00
   0   377    0.333117D-84    0.206032D-26    0.424307D-81    0.421447D+00
   0   378    0.786425D-85    0.130418D-26    0.422749D-82    0.421447D+00
   0   379    0.181765D-85    0.825529D-27    0.161256D-82    0.421447D+00
   0   380    0.430739D-86    0.522543D-27    0.413550D-83    0.421447D+00
   0   381    0.101989D-86    0.330755D-27    0.663067D-84    0.421447D+00
   0   382    0.243416D-87    0.209355D-27    0.343209D-84    0.421447D+00
   0   383    0.571419D-88    0.132512D-27    0.547928D-85    0.421447D+00
   0   384    0.134070D-88    0.838721D-28    0.672538D-86    0.421447D+00
   0   385    0.315535D-89    0.530852D-28    0.236999D-86    0.421447D+00
   0   386    0.757658D-90    0.335986D-28    0.525001D-87    0.421447D+00
   0   387    0.180567D-90    0.212648D-28    0.132047D-87    0.421447D+00
   0   388    0.444497D-91    0.134583D-28    0.207805D-88    0.421447D+00
   0   389    0.100485D-91    0.851731D-29    0.147290D-88    0.421447D+00
   0   390    0.238921D-92    0.539003D-29    0.111871D-89    0.421447D+00
   0   391    0.568585D-93    0.341058D-29    0.721878D-90    0.421447D+00
   0   392    0.136467D-93    0.215752D-29    0.420530D-91    0.421447D+00
   0   393    0.322210D-94    0.136400D-29    0.225756D-91    0.421447D+00
   0   394    0.754265D-95    0.861025D-30    0.443771D-92    0.421447D+00
   0   395    0.178168D-95    0.541485D-30    0.156040D-92    0.421447D+00
   0   396    0.416459D-96    0.337313D-30    0.315246D-93    0.421447D+00
   0   397    0.996206D-97    0.205014D-30    0.599258D-94    0.421447D+00