variables =  "IG"  "JG"  "PHI"  "Temp."  "Latent_heat"  "mm"
ZONE  I=  401  J=  101
   0     0    0.100000D+01    0.841125D+00    0.000000D+00    0.289067D+00
   0     1    0.100000D+01    0.841125D+00    0.000000D+00    0.289067D+00
   0     2    0.100000D+01    0.841591D+00    0.000000D+00    0.288687D+00
   0     3    0.100000D+01    0.842521D+00    0.000000D+00    0.287925D+00
   0     4    0.100000D+01    0.843912D+00    0.000000D+00    0.286773D+00
   0     5    0.100000D+01    0.845756D+00    0.000000D+00    0.285222D+00
   0     6    0.100000D+01    0.848048D+00    0.000000D+00    0.283259D+00
   0     7    0.100000D+01    0.850777D+00    0.000000D+00    0.280866D+00
   0     8    0.100000D+01    0.853933D+00    0.000000D+00    0.278023D+00
   0     9    0.100000D+01    0.857503D+00    0.000000D+00    0.274704D+00
   0    10    0.100000D+01    0.861474D+00    0.000000D+00    0.270879D+00
   0    11    0.100000D+01    0.865831D+00    0.000000D+00    0.266513D+00
   0    12    0.100000D+01    0.870557D+00    0.000000D+00    0.261566D+00
   0    13    0.100000D+01    0.875637D+00    0.000000D+00    0.255990D+00
   0    14    0.100000D+01    0.881053D+00    0.000000D+00    0.249733D+00
   0    15    0.100000D+01    0.886788D+00    0.000000D+00    0.242733D+00
   0    16    0.100000D+01    0.892825D+00    0.133227D-10    0.234921D+00
   0    17    0.100000D+01    0.899147D+00   -0.266454D-10    0.226220D+00
   0    18    0.100000D+01    0.905738D+00    0.892619D-09    0.216544D+00
   0    19    0.100000D+01    0.912581D+00    0.811351D-08    0.205800D+00
   0    20    0.100000D+01    0.919664D+00   -0.109779D-07    0.193888D+00
   0    21    0.100000D+01    0.926973D+00    0.374301D-06    0.180700D+00
   0    22    0.100000D+01    0.934497D+00    0.184622D-05    0.166131D+00
   0    23    0.100000D+01    0.942229D+00   -0.287304D-06    0.150078D+00
   0    24    0.100000D+01    0.950165D+00    0.259094D-04    0.132447D+00
   0    25    0.999998D+00    0.958307D+00   -0.112518D-02    0.113161D+00
   0    26    0.999983D+00    0.966675D+00    0.114099D-01    0.921490D-01
   0    27    0.999885D+00    0.975320D+00   -0.474675D-01    0.693104D-01
   0    28    0.999233D+00    0.984345D+00    0.250949D+00    0.444797D-01
   0    29    0.995003D+00    0.993850D+00   -0.294348D+01    0.176019D-01
   0    30    0.968233D+00    0.100367D+01    0.328296D+01   -0.101625D-01
   0    31    0.820132D+00    0.101508D+01    0.323938D+02   -0.426582D-01
   0    32    0.290527D+00    0.102350D+01    0.104630D+03   -0.695219D-01
   0    33    0.685848D-01    0.102441D+01   -0.838137D+01   -0.700111D-01
   0    34    0.205937D-01    0.101968D+01   -0.422555D+01   -0.560955D-01
   0    35    0.101230D-01    0.101585D+01    0.606623D+01   -0.453580D-01
   0    36    0.883330D-02    0.101101D+01   -0.137438D+01   -0.313218D-01
   0    37    0.936243D-02    0.100943D+01    0.610439D+00   -0.272604D-01
   0    38    0.967209D-02    0.100894D+01    0.427329D+01   -0.260301D-01
   0    39    0.100088D-01    0.100807D+01    0.128829D+01   -0.228018D-01
   0    40    0.105905D-01    0.100764D+01   -0.501141D+01   -0.216856D-01
   0    41    0.107303D-01    0.100668D+01    0.263001D+01   -0.188927D-01
   0    42    0.105164D-01    0.100629D+01   -0.815059D-01   -0.177727D-01
   0    43    0.109299D-01    0.100522D+01    0.138417D+01   -0.145693D-01
   0    44    0.113356D-01    0.100443D+01   -0.661180D+01   -0.123014D-01
   0    45    0.114848D-01    0.100488D+01    0.209511D+01   -0.135508D-01
   0    46    0.117883D-01    0.100419D+01    0.180104D+01   -0.122987D-01
   0    47    0.116555D-01    0.100383D+01    0.574384D+01   -0.112009D-01
   0    48    0.120219D-01    0.100316D+01   -0.630513D+01   -0.847905D-02
   0    49    0.124049D-01    0.100274D+01   -0.655368D+01   -0.798843D-02
   0    50    0.125677D-01    0.100322D+01   -0.360875D+01   -0.991588D-02
   0    51    0.127415D-01    0.100198D+01   -0.837878D+01   -0.608884D-02
   0    52    0.127000D-01    0.100075D+01    0.290244D+01   -0.270617D-02
   0    53    0.130869D-01    0.100064D+01    0.158381D+01   -0.221109D-02
   0    54    0.129016D-01    0.100075D+01    0.561459D+01   -0.172716D-02
   0    55    0.130420D-01    0.100014D+01   -0.697556D+01   -0.597523D-03
   0    56    0.131931D-01    0.100077D+01   -0.498740D+01   -0.207316D-02
   0    57    0.132649D-01    0.999319D+00   -0.619567D+01    0.146464D-02
   0    58    0.133968D-01    0.999036D+00    0.746404D+01    0.323615D-02
   0    59    0.142945D-01    0.999082D+00   -0.772071D+01    0.332939D-02
   0    60    0.139807D-01    0.998680D+00    0.709450D+01    0.387503D-02
   0    61    0.140629D-01    0.999439D+00    0.305515D+01    0.106839D-02
   0    62    0.141247D-01    0.998995D+00   -0.394249D+01    0.218529D-02
   0    63    0.139413D-01    0.999473D+00   -0.998405D+00    0.187996D-02
   0    64    0.141755D-01    0.998696D+00    0.855864D+01    0.408495D-02
   0    65    0.140676D-01    0.997535D+00   -0.479330D+01    0.620426D-02
   0    66    0.141258D-01    0.997471D+00    0.726203D+01    0.680479D-02
   0    67    0.140171D-01    0.997256D+00   -0.255037D+01    0.831975D-02
   0    68    0.143454D-01    0.997827D+00    0.634584D+01    0.541635D-02
   0    69    0.144131D-01    0.998209D+00   -0.275003D+01    0.581799D-02
   0    70    0.140706D-01    0.997988D+00   -0.188494D+01    0.633285D-02
   0    71    0.142953D-01    0.997273D+00   -0.667051D+00    0.825634D-02
   0    72    0.142202D-01    0.997731D+00    0.897804D+00    0.650625D-02
   0    73    0.145919D-01    0.998341D+00    0.576113D+01    0.413163D-02
   0    74    0.146138D-01    0.998280D+00    0.675519D+01    0.507443D-02
   0    75    0.139782D-01    0.998281D+00    0.783732D+01    0.440188D-02
   0    76    0.142437D-01    0.998084D+00   -0.608005D+01    0.589092D-02
   0    77    0.138565D-01    0.998872D+00   -0.138441D+01    0.283403D-02
   0    78    0.142284D-01    0.998581D+00   -0.859452D+01    0.357771D-02
   0    79    0.143656D-01    0.998453D+00   -0.655482D+01    0.478296D-02
   0    80    0.141360D-01    0.998740D+00    0.342886D+01    0.314564D-02
   0    81    0.141583D-01    0.998808D+00    0.280441D+01    0.385419D-02
   0    82    0.138518D-01    0.998880D+00    0.289995D+01    0.268688D-02
   0    83    0.142489D-01    0.999103D+00   -0.194405D+01    0.299833D-02
   0    84    0.140105D-01    0.999344D+00    0.483711D+01    0.189217D-02
   0    85    0.141381D-01    0.998122D+00    0.139215D+01    0.491037D-02
   0    86    0.141127D-01    0.998398D+00   -0.399077D+01    0.518349D-02
   0    87    0.143230D-01    0.998084D+00   -0.840144D+01    0.519648D-02
   0    88    0.142668D-01    0.999025D+00   -0.398254D+01    0.260720D-02
   0    89    0.139801D-01    0.999936D+00   -0.114680D+01    0.509124D-04
   0    90    0.141483D-01    0.998481D+00   -0.236026D+01    0.424719D-02
   0    91    0.143174D-01    0.998657D+00   -0.291612D+01    0.312336D-02
   0    92    0.143843D-01    0.998389D+00   -0.118704D+01    0.446902D-02
   0    93    0.141852D-01    0.998633D+00    0.342983D+01    0.446021D-02
   0    94    0.142037D-01    0.999181D+00   -0.929892D+00    0.219291D-02
   0    95    0.140815D-01    0.999515D+00   -0.667373D+01    0.154034D-02
   0    96    0.141668D-01    0.999256D+00   -0.397745D+01    0.217758D-02
   0    97    0.143850D-01    0.997942D+00    0.906174D+00    0.534278D-02
   0    98    0.140850D-01    0.997510D+00    0.153028D+01    0.727822D-02
   0    99    0.140361D-01    0.997000D+00    0.361729D+01    0.938981D-02
   0   100    0.143241D-01    0.997059D+00   -0.767301D+01    0.869924D-02
   0   101    0.144210D-01    0.996462D+00    0.418816D+01    0.996713D-02
   0   102    0.140389D-01    0.996579D+00    0.566698D+01    0.976913D-02
   0   103    0.140475D-01    0.997170D+00    0.576370D+01    0.857874D-02
   0   104    0.145702D-01    0.998662D+00    0.317489D+01    0.391154D-02
   0   105    0.144581D-01    0.999014D+00    0.530913D+01    0.322997D-02
   0   106    0.149298D-01    0.998951D+00    0.744896D+01    0.333565D-02
   0   107    0.144071D-01    0.998512D+00   -0.401221D+01    0.360910D-02
   0   108    0.149722D-01    0.998790D+00   -0.937345D+01    0.337936D-02
   0   109    0.149518D-01    0.998642D+00    0.763611D+01    0.396220D-02
   0   110    0.144125D-01    0.998604D+00    0.440525D+01    0.463663D-02
   0   111    0.147051D-01    0.998109D+00   -0.185992D+00    0.575793D-02
   0   112    0.149900D-01    0.997741D+00    0.440580D+01    0.571022D-02
   0   113    0.151212D-01    0.997803D+00    0.496616D+01    0.543730D-02
   0   114    0.147153D-01    0.997443D+00   -0.482422D+01    0.787738D-02
   0   115    0.150611D-01    0.997480D+00   -0.171847D+01    0.735899D-02
   0   116    0.145679D-01    0.997539D+00    0.610382D+00    0.690242D-02
   0   117    0.150855D-01    0.997003D+00    0.488292D+00    0.871443D-02
   0   118    0.149776D-01    0.996521D+00   -0.145634D+01    0.105656D-01
   0   119    0.152965D-01    0.996172D+00   -0.361722D+01    0.107994D-01
   0   120    0.155317D-01    0.996704D+00   -0.905116D+01    0.900481D-02
   0   121    0.157240D-01    0.995576D+00   -0.829652D+01    0.121335D-01
   0   122    0.157816D-01    0.996104D+00   -0.735653D+01    0.114689D-01
   0   123    0.155836D-01    0.996476D+00    0.600460D+01    0.949737D-02
   0   124    0.156298D-01    0.997153D+00   -0.907079D+01    0.780732D-02
   0   125    0.148838D-01    0.996309D+00    0.233881D+01    0.106548D-01
   0   126    0.144859D-01    0.994990D+00    0.159842D+00    0.141612D-01
   0   127    0.149261D-01    0.994236D+00   -0.684320D+01    0.163696D-01
   0   128    0.158295D-01    0.993143D+00   -0.417004D+01    0.197094D-01
   0   129    0.168222D-01    0.990491D+00   -0.345845D+01    0.277109D-01
   0   130    0.181572D-01    0.986299D+00    0.153047D+01    0.395882D-01
   0   131    0.207056D-01    0.979515D+00   -0.356576D+01    0.578822D-01
   0   132    0.228065D-01    0.968042D+00   -0.722841D+01    0.887707D-01
   0   133    0.258716D-01    0.951390D+00   -0.241935D+01    0.129237D+00
   0   134    0.277729D-01    0.925059D+00   -0.155594D+02    0.184948D+00
   0   135    0.269333D-01    0.882381D+00    0.964679D+00    0.248515D+00
   0   136    0.206042D-01    0.816584D+00   -0.756336D+00    0.307245D+00
   0   137    0.126988D-01    0.727874D+00    0.156912D+01    0.349315D+00
   0   138    0.682754D-02    0.623726D+00    0.335329D+01    0.375701D+00
   0   139    0.308908D-02    0.513637D+00    0.225237D+01    0.391969D+00
   0   140    0.119554D-02    0.408917D+00    0.378635D+00    0.402029D+00
   0   141    0.438547D-03    0.316157D+00    0.329545D+00    0.408428D+00
   0   142    0.155371D-03    0.238367D+00    0.815140D-01    0.412617D+00
   0   143    0.518502D-04    0.175849D+00    0.191033D-01    0.415420D+00
   0   144    0.173081D-04    0.127292D+00    0.229009D-02    0.417324D+00
   0   145    0.545370D-05    0.906276D-01    0.730708D-02    0.418629D+00
   0   146    0.172819D-05    0.635919D-01    0.195629D-02    0.419526D+00
   0   147    0.520846D-06    0.440555D-01    0.458509D-03    0.420143D+00
   0   148    0.158433D-06    0.301813D-01    0.718918D-04    0.420566D+00
   0   149    0.487952D-07    0.204748D-01    0.235368D-04    0.420855D+00
   0   150    0.144057D-07    0.137714D-01    0.183975D-04    0.421052D+00
   0   151    0.399685D-08    0.919368D-02    0.157253D-05    0.421184D+00
   0   152    0.113915D-08    0.609772D-02    0.741844D-06    0.421273D+00
   0   153    0.332372D-09    0.402140D-02    0.217215D-06    0.421333D+00
   0   154    0.101045D-09    0.263898D-02    0.101575D-06    0.421372D+00
   0   155    0.308916D-10    0.172434D-02    0.844185D-08    0.421398D+00
   0   156    0.935757D-11    0.112247D-02    0.216693D-08    0.421415D+00
   0   157    0.279281D-11    0.728291D-03    0.157527D-08    0.421426D+00
   0   158    0.830771D-12    0.471183D-03    0.286036D-09    0.421434D+00
   0   159    0.245666D-12    0.304079D-03    0.543216D-10    0.421438D+00
   0   160    0.719315D-13    0.195808D-03    0.636853D-10    0.421441D+00
   0   161    0.205284D-13    0.125845D-03    0.161048D-10    0.421443D+00
   0   162    0.579709D-14    0.807437D-04    0.240908D-11    0.421445D+00
   0   163    0.161525D-14    0.517288D-04    0.128050D-11    0.421446D+00
   0   164    0.449592D-15    0.330967D-04    0.550429D-12    0.421446D+00
   0   165    0.122481D-15    0.211509D-04    0.636468D-13    0.421446D+00
   0   166    0.330422D-16    0.135029D-04    0.381015D-13    0.421447D+00
   0   167    0.912513D-17    0.861234D-05    0.314151D-14    0.421447D+00
   0   168    0.245322D-17    0.548858D-05    0.237589D-14    0.421447D+00
   0   169    0.656994D-18    0.349526D-05    0.654232D-15    0.421447D+00
   0   170    0.165384D-18    0.222440D-05    0.197985D-15    0.421447D+00
   0   171    0.435654D-19    0.141478D-05    0.444461D-16    0.421447D+00
   0   172    0.112842D-19    0.899359D-06    0.512748D-17    0.421447D+00
   0   173    0.283006D-20    0.571436D-06    0.333216D-17    0.421447D+00
   0   174    0.727664D-21    0.362922D-06    0.722954D-18    0.421447D+00
   0   175    0.185279D-21    0.230402D-06    0.151357D-18    0.421447D+00
   0   176    0.488432D-22    0.146219D-06    0.301820D-19    0.421447D+00
   0   177    0.121776D-22    0.927645D-07    0.100263D-19    0.421447D+00
   0   178    0.318736D-23    0.588341D-07    0.329845D-20    0.421447D+00
   0   179    0.809197D-24    0.373044D-07    0.305375D-21    0.421447D+00
   0   180    0.202694D-24    0.236474D-07    0.102375D-21    0.421447D+00
   0   181    0.497070D-25    0.149868D-07    0.370989D-22    0.421447D+00
   0   182    0.121526D-25    0.949606D-08    0.470379D-23    0.421447D+00
   0   183    0.302633D-26    0.601585D-08    0.190118D-23    0.421447D+00
   0   184    0.762969D-27    0.381044D-08    0.785993D-24    0.421447D+00
   0   185    0.185607D-27    0.241315D-08    0.183042D-24    0.421447D+00
   0   186    0.449289D-28    0.152803D-08    0.526569D-25    0.421447D+00
   0   187    0.109967D-28    0.967430D-09    0.102847D-25    0.421447D+00
   0   188    0.267265D-29    0.612427D-09    0.118162D-26    0.421447D+00
   0   189    0.649231D-30    0.387650D-09    0.475720D-27    0.421447D+00
   0   190    0.162326D-30    0.245347D-09    0.182332D-27    0.421447D+00
   0   191    0.387446D-31    0.155267D-09    0.184369D-28    0.421447D+00
   0   192    0.976256D-32    0.982514D-10    0.106519D-28    0.421447D+00
   0   193    0.233473D-32    0.621675D-10    0.139499D-29    0.421447D+00
   0   194    0.546421D-33    0.393328D-10    0.613383D-30    0.421447D+00
   0   195    0.133621D-33    0.248838D-10    0.770476D-31    0.421447D+00
   0   196    0.325883D-34    0.157417D-10    0.453954D-31    0.421447D+00
   0   197    0.779995D-35    0.995769D-11    0.793203D-32    0.421447D+00
   0   198    0.190702D-35    0.629858D-11    0.102551D-32    0.421447D+00
   0   199    0.455752D-36    0.398386D-11    0.575538D-33    0.421447D+00
   0   200    0.113183D-36    0.251968D-11    0.332117D-34    0.421447D+00
   0   201    0.264759D-37    0.159356D-11    0.256285D-34    0.421447D+00
   0   202    0.656377D-38    0.100779D-11    0.823816D-35    0.421447D+00
   0   203    0.162648D-38    0.637323D-12    0.213954D-35    0.421447D+00
   0   204    0.382453D-39    0.403025D-12    0.446897D-36    0.421447D+00
   0   205    0.875806D-40    0.254853D-12    0.102981D-36    0.421447D+00
   0   206    0.211518D-40    0.161151D-12    0.288929D-37    0.421447D+00
   0   207    0.504999D-41    0.101897D-12    0.430463D-38    0.421447D+00
   0   208    0.121742D-41    0.644289D-13    0.167270D-38    0.421447D+00
   0   209    0.294025D-42    0.407368D-13    0.343373D-39    0.421447D+00
   0   210    0.701009D-43    0.257562D-13    0.339606D-40    0.421447D+00
   0   211    0.167204D-43    0.162841D-13    0.205972D-40    0.421447D+00
   0   212    0.397346D-44    0.102952D-13    0.199270D-41    0.421447D+00
   0   213    0.975457D-45    0.650871D-14    0.131683D-41    0.421447D+00
   0   214    0.226997D-45    0.411475D-14    0.291207D-42    0.421447D+00
   0   215    0.540199D-46    0.260124D-14    0.385937D-43    0.421447D+00
   0   216    0.130858D-46    0.164439D-14    0.521109D-44    0.421447D+00
   0   217    0.311655D-47    0.103948D-14    0.154650D-44    0.421447D+00
   0   218    0.729258D-48    0.657071D-15    0.108126D-44    0.421447D+00
   0   219    0.173569D-48    0.415332D-15    0.121598D-45    0.421447D+00
   0   220    0.422200D-49    0.262520D-15    0.436489D-46    0.421447D+00
   0   221    0.102285D-49    0.165925D-15    0.485323D-47    0.421447D+00
   0   222    0.238153D-50    0.104868D-15    0.765307D-48    0.421447D+00
   0   223    0.571605D-51    0.662756D-16    0.623039D-48    0.421447D+00
   0   224    0.138061D-51    0.418833D-16    0.141617D-48    0.421447D+00
   0   225    0.323536D-52    0.264669D-16    0.151073D-49    0.421447D+00
   0   226    0.747094D-53    0.167239D-16    0.449926D-50    0.421447D+00
   0   227    0.178693D-53    0.105668D-16    0.183468D-50    0.421447D+00
   0   228    0.424684D-54    0.667592D-17    0.609615D-51    0.421447D+00
   0   229    0.100329D-54    0.421738D-17    0.625688D-52    0.421447D+00
   0   230    0.239452D-55    0.266399D-17    0.659813D-53    0.421447D+00
   0   231    0.573113D-56    0.168259D-17    0.787345D-53    0.421447D+00
   0   232    0.136233D-56    0.106260D-17    0.196795D-53    0.421447D+00
   0   233    0.317687D-57    0.670978D-18    0.408078D-54    0.421447D+00
   0   234    0.746590D-58    0.423628D-18    0.727946D-55    0.421447D+00
   0   235    0.180092D-58    0.267420D-18    0.206927D-55    0.421447D+00
   0   236    0.430994D-59    0.168783D-18    0.158124D-56    0.421447D+00
   0   237    0.995268D-60    0.106509D-18    0.111318D-56    0.421447D+00
   0   238    0.237317D-60    0.671978D-19    0.123327D-57    0.421447D+00
   0   239    0.555118D-61    0.423868D-19    0.749000D-58    0.421447D+00
   0   240    0.133001D-61    0.267303D-19    0.134319D-58    0.421447D+00
   0   241    0.322801D-62    0.168526D-19    0.266754D-59    0.421447D+00
   0   242    0.758090D-63    0.106222D-19    0.462499D-60    0.421447D+00
   0   243    0.178107D-63    0.669316D-20    0.212584D-60    0.421447D+00
   0   244    0.436549D-64    0.421612D-20    0.364724D-61    0.421447D+00
   0   245    0.103196D-64    0.265491D-20    0.618393D-62    0.421447D+00
   0   246    0.240135D-65    0.167121D-20    0.334860D-62    0.421447D+00
   0   247    0.550945D-66    0.105160D-20    0.546135D-63    0.421447D+00
   0   248    0.128974D-66    0.661442D-21    0.167200D-63    0.421447D+00
   0   249    0.301678D-67    0.415862D-21    0.249661D-64    0.421447D+00
   0   250    0.712326D-68    0.261343D-21    0.715438D-65    0.421447D+00
   0   251    0.165930D-68    0.164160D-21    0.202215D-65    0.421447D+00
   0   252    0.412001D-69    0.103064D-21    0.475434D-66    0.421447D+00
   0   253    0.979269D-70    0.646724D-22    0.101195D-66    0.421447D+00
   0   254    0.226548D-70    0.405595D-22    0.216851D-67    0.421447D+00
   0   255    0.521805D-71    0.254225D-22    0.713200D-68    0.421447D+00
   0   256    0.124807D-71    0.159251D-22    0.494693D-69    0.421447D+00
   0   257    0.288458D-72    0.996958D-23    0.306974D-69    0.421447D+00
   0   258    0.678182D-73    0.623720D-23    0.479430D-70    0.421447D+00
   0   259    0.157687D-73    0.389951D-23    0.226102D-70    0.421447D+00
   0   260    0.363566D-74    0.243628D-23    0.320760D-71    0.421447D+00
   0   261    0.861637D-75    0.152101D-23    0.550238D-72    0.421447D+00
   0   262    0.205912D-75    0.948880D-24    0.245169D-72    0.421447D+00
   0   263    0.500907D-76    0.591503D-24    0.604842D-73    0.421447D+00
   0   264    0.115154D-76    0.368432D-24    0.143448D-73    0.421447D+00
   0   265    0.278993D-77    0.229300D-24    0.861920D-75    0.421447D+00
   0   266    0.652529D-78    0.142589D-24    0.550230D-75    0.421447D+00
   0   267    0.150635D-78    0.885918D-25    0.158941D-75    0.421447D+00
   0   268    0.353546D-79    0.549943D-25    0.468377D-76    0.421447D+00
   0   269    0.838808D-80    0.341075D-25    0.988007D-77    0.421447D+00
   0   270    0.198481D-80    0.211339D-25    0.182223D-77    0.421447D+00
   0   271    0.467952D-81    0.130827D-25    0.379265D-78    0.421447D+00
   0   272    0.110439D-81    0.809093D-26    0.907421D-79    0.421447D+00
   0   273    0.263179D-82    0.499886D-26    0.989391D-80    0.421447D+00
   0   274    0.630214D-83    0.308537D-26    0.260393D-80    0.421447D+00
   0   275    0.146410D-83    0.190240D-26    0.144495D-80    0.421447D+00
   0   276    0.338990D-84    0.117177D-26    0.508363D-81    0.421447D+00
   0   277    0.796166D-85    0.720987D-27    0.112321D-81    0.421447D+00
   0   278    0.186258D-85    0.443144D-27    0.109931D-82    0.421447D+00
   0   279    0.445029D-86    0.272076D-27    0.493467D-83    0.421447D+00
   0   280    0.104852D-86    0.166862D-27    0.146569D-83    0.421447D+00
   0   281    0.248186D-87    0.102220D-27    0.993176D-85    0.421447D+00
   0   282    0.586642D-88    0.625496D-28    0.183315D-85    0.421447D+00
   0   283    0.135785D-88    0.382309D-28    0.849206D-86    0.421447D+00
   0   284    0.321557D-89    0.233399D-28    0.327868D-86    0.421447D+00
   0   285    0.754908D-90    0.142323D-28    0.304200D-87    0.421447D+00
   0   286    0.179903D-90    0.866837D-29    0.202764D-87    0.421447D+00
   0   287    0.426771D-91    0.527325D-29    0.137956D-88    0.421447D+00
   0   288    0.101410D-91    0.320401D-29    0.112507D-88    0.421447D+00
   0   289    0.232017D-92    0.194438D-29    0.171624D-89    0.421447D+00
   0   290    0.537722D-93    0.117850D-29    0.745022D-90    0.421447D+00
   0   291    0.124508D-93    0.713417D-30    0.971845D-91    0.421447D+00
   0   292    0.299637D-94    0.431333D-30    0.408299D-91    0.421447D+00
   0   293    0.682861D-95    0.260456D-30    0.363732D-92    0.421447D+00
   0   294    0.163808D-95    0.157074D-30    0.902068D-93    0.421447D+00
   0   295    0.376177D-96    0.946064D-31    0.564987D-93    0.421447D+00
   0   296    0.887894D-97    0.569085D-31    0.480725D-94    0.421447D+00
   0   297    0.214419D-97    0.341879D-31    0.191981D-94    0.421447D+00
   0   298    0.508245D-98    0.205117D-31    0.350017D-95    0.421447D+00
   0   299    0.116398D-98    0.122903D-31    0.993001D-96    0.421447D+00
   0   300    0.271455D-99    0.735450D-32    0.397361D-96    0.421447D+00
   0   301    0.631729-100    0.439509D-32    0.331297D-97    0.421447D+00
   0   302    0.153202-100    0.262305D-32    0.979916D-98    0.421447D+00
   0   303    0.367380-101    0.156338D-32    0.272482D-98    0.421447D+00
   0   304    0.853695-102    0.930553D-33    0.569977D-99    0.421447D+00
   0   305    0.200484-102    0.553137D-33    0.205836D-99    0.421447D+00
   0   306    0.470959-103    0.328350D-33    0.446036-100    0.421447D+00
   0   307    0.106678-103    0.194649D-33    0.704953-101    0.421447D+00
   0   308    0.255587-104    0.115233D-33    0.139970-101    0.421447D+00
   0   309    0.599392-105    0.681251D-34    0.419447-102    0.421447D+00
   0   310    0.141314-105    0.402201D-34    0.179702-102    0.421447D+00
   0   311    0.328434-106    0.237127D-34    0.232403-103    0.421447D+00
   0   312    0.781017-107    0.139612D-34    0.809852-104    0.421447D+00
   0   313    0.184429-107    0.820845D-35    0.105436-104    0.421447D+00
   0   314    0.434138-108    0.481946D-35    0.205376-105    0.421447D+00
   0   315    0.101649-108    0.282574D-35    0.444506-106    0.421447D+00
   0   316    0.236946-109    0.165448D-35    0.274538-106    0.421447D+00
   0   317    0.551461-110    0.967354D-36    0.438180-107    0.421447D+00
   0   318    0.126547-110    0.564808D-36    0.192225-107    0.421447D+00
   0   319    0.300240-111    0.329312D-36    0.140395-108    0.421447D+00
   0   320    0.710198-112    0.191736D-36    0.329179-109    0.421447D+00
   0   321    0.162963-112    0.111478D-36    0.120987-109    0.421447D+00
   0   322    0.388395-113    0.647239D-37    0.233742-110    0.421447D+00
   0   323    0.915875-114    0.375254D-37    0.120287-110    0.421447D+00
   0   324    0.210343-114    0.217256D-37    0.248899-111    0.421447D+00
   0   325    0.510439-115    0.125604D-37    0.346688-112    0.421447D+00
   0   326    0.120228-115    0.725138D-38    0.137950-112    0.421447D+00
   0   327    0.288426-116    0.418043D-38    0.107574-113    0.421447D+00
   0   328    0.656056-117    0.240660D-38    0.306695-114    0.421447D+00
   0   329    0.155296-117    0.138346D-38    0.161767-114    0.421447D+00
   0   330    0.365638-118    0.794171D-39    0.138077-115    0.421447D+00
   0   331    0.841754-119    0.455241D-39    0.367517-116    0.421447D+00
   0   332    0.196173-119    0.260584D-39    0.243712-116    0.421447D+00
   0   333    0.446428-120    0.148948D-39    0.273004-117    0.421447D+00
   0   334    0.108968-120    0.850160D-40    0.148474-117    0.421447D+00
   0   335    0.255624-121    0.484557D-40    0.210250-118    0.421447D+00
   0   336    0.595587-122    0.275783D-40    0.578844-119    0.421447D+00
   0   337    0.142629-122    0.156736D-40    0.740315-120    0.421447D+00
   0   338    0.340815-123    0.889499D-41    0.226683-120    0.421447D+00
   0   339    0.798846-124    0.504081D-41    0.609295-121    0.421447D+00
   0   340    0.192260-124    0.285254D-41    0.783439-122    0.421447D+00
   0   341    0.430280-125    0.161190D-41    0.631466-122    0.421447D+00
   0   342    0.101682-125    0.909542D-42    0.434321-123    0.421447D+00
   0   343    0.240938-126    0.512486D-42    0.259634-123    0.421447D+00
   0   344    0.560508-127    0.288348D-42    0.252787-124    0.421447D+00
   0   345    0.132438-127    0.162005D-42    0.151958-124    0.421447D+00
   0   346    0.305428-128    0.908894D-43    0.307913-125    0.421447D+00
   0   347    0.708777-129    0.509183D-43    0.874247-126    0.421447D+00
   0   348    0.170219-129    0.284846D-43    0.117849-126    0.421447D+00
   0   349    0.404215-130    0.159118D-43    0.112975-127    0.421447D+00
   0   350    0.938624-131    0.887573D-44    0.131965-127    0.421447D+00
   0   351    0.220510-131    0.494383D-44    0.225078-128    0.421447D+00
   0   352    0.507227-132    0.274977D-44    0.547053-129    0.421447D+00
   0   353    0.116636-132    0.152723D-44    0.126799-129    0.421447D+00
   0   354    0.283159-133    0.847008D-45    0.205838-130    0.421447D+00
   0   355    0.633793-134    0.469077D-45    0.288925-131    0.421447D+00
   0   356    0.151097-134    0.259403D-45    0.566055-132    0.421447D+00
   0   357    0.362391-135    0.143245D-45    0.216799-132    0.421447D+00
   0   358    0.848476-136    0.789877D-46    0.338276-133    0.421447D+00
   0   359    0.195736-136    0.434924D-46    0.230390-133    0.421447D+00
   0   360    0.459798-137    0.239134D-46    0.276598-134    0.421447D+00
   0   361    0.110532-137    0.131294D-46    0.300009-135    0.421447D+00
   0   362    0.259335-138    0.719814D-47    0.222368-135    0.421447D+00
   0   363    0.597439-139    0.394069D-47    0.902475-136    0.421447D+00
   0   364    0.140408-139    0.215426D-47    0.870401-137    0.421447D+00
   0   365    0.343402-140    0.117598D-47    0.282735-137    0.421447D+00
   0   366    0.811669-141    0.641024D-48    0.641028-138    0.421447D+00
   0   367    0.191663-141    0.348919D-48    0.249039-138    0.421447D+00
   0   368    0.440655-142    0.189649D-48    0.256035-139    0.421447D+00
   0   369    0.104448-142    0.102932D-48    0.525828-140    0.421447D+00
   0   370    0.242941-143    0.557863D-49    0.361363-140    0.421447D+00
   0   371    0.583336-144    0.301911D-49    0.572468-141    0.421447D+00
   0   372    0.134094-144    0.163157D-49    0.135431-141    0.421447D+00
   0   373    0.314186-145    0.880460D-50    0.130393-142    0.421447D+00
   0   374    0.751113-146    0.474448D-50    0.898489-143    0.421447D+00
   0   375    0.175106-146    0.255296D-50    0.826402-144    0.421447D+00
   0   376    0.412575-147    0.137175D-50    0.123862-144    0.421447D+00
   0   377    0.946920-148    0.736011D-51    0.886028-145    0.421447D+00
   0   378    0.223546-148    0.394339D-51    0.197858-145    0.421447D+00
   0   379    0.514542-149    0.210975D-51    0.711923-146    0.421447D+00
   0   380    0.120273-149    0.112712D-51    0.166974-146    0.421447D+00
   0   381    0.284511-150    0.601296D-52    0.169561-147    0.421447D+00
   0   382    0.666134-151    0.320319D-52    0.477576-148    0.421447D+00
   0   383    0.159749-151    0.170395D-52    0.201601-148    0.421447D+00
   0   384    0.370820-152    0.905121D-53    0.237984-149    0.421447D+00
   0   385    0.870569-153    0.480104D-53    0.336254-150    0.421447D+00
   0   386    0.206302-153    0.254298D-53    0.147207-150    0.421447D+00
   0   387    0.488702-154    0.134503D-53    0.405640-151    0.421447D+00
   0   388    0.117239-154    0.710389D-54    0.164750-151    0.421447D+00
   0   389    0.277111-155    0.374664D-54    0.138061-152    0.421447D+00
   0   390    0.633891-156    0.197318D-54    0.632601-153    0.421447D+00
   0   391    0.146524-156    0.103769D-54    0.716115-154    0.421447D+00
   0   392    0.341077-157    0.544937D-55    0.253469-154    0.421447D+00
   0   393    0.788808-158    0.285746D-55    0.661938-155    0.421447D+00
   0   394    0.177582-158    0.149591D-55    0.247853-155    0.421447D+00
   0   395    0.421133-159    0.781423D-56    0.602507-156    0.421447D+00
   0   396    0.987303-160    0.406466D-56    0.817126-157    0.421447D+00
   0   397    0.231366-160    0.208904D-56    0.313000-157    0.421447D+00