variables =  "IG"  "JG"  "PHI"  "Temp."  "Latent_heat"  "mm"
ZONE  I=  401  J=  101
   0     0    0.100000D+01    0.883394D+00    0.000000D+00    0.246924D+00
   0     1    0.100000D+01    0.883394D+00    0.000000D+00    0.246924D+00
   0     2    0.100000D+01    0.883677D+00    0.000000D+00    0.246579D+00
   0     3    0.100000D+01    0.884243D+00    0.000000D+00    0.245888D+00
   0     4    0.100000D+01    0.885089D+00    0.000000D+00    0.244848D+00
   0     5    0.100000D+01    0.886213D+00    0.000000D+00    0.243452D+00
   0     6    0.100000D+01    0.887610D+00    0.000000D+00    0.241696D+00
   0     7    0.100000D+01    0.889276D+00    0.000000D+00    0.239570D+00
   0     8    0.100000D+01    0.891204D+00    0.000000D+00    0.237064D+00
   0     9    0.100000D+01    0.893389D+00    0.000000D+00    0.234167D+00
   0    10    0.100000D+01    0.895822D+00    0.000000D+00    0.230865D+00
   0    11    0.100000D+01    0.898495D+00    0.000000D+00    0.227142D+00
   0    12    0.100000D+01    0.901401D+00    0.000000D+00    0.222982D+00
   0    13    0.100000D+01    0.904531D+00    0.000000D+00    0.218364D+00
   0    14    0.100000D+01    0.907875D+00    0.000000D+00    0.213268D+00
   0    15    0.100000D+01    0.911423D+00    0.000000D+00    0.207670D+00
   0    16    0.100000D+01    0.915168D+00    0.000000D+00    0.201546D+00
   0    17    0.100000D+01    0.919099D+00    0.000000D+00    0.194869D+00
   0    18    0.100000D+01    0.923208D+00    0.000000D+00    0.187609D+00
   0    19    0.100000D+01    0.927486D+00   -0.133227D-10    0.179738D+00
   0    20    0.100000D+01    0.931927D+00   -0.146549D-09    0.171223D+00
   0    21    0.100000D+01    0.936522D+00    0.466294D-09    0.162034D+00
   0    22    0.100000D+01    0.941267D+00   -0.643485D-08    0.152137D+00
   0    23    0.100000D+01    0.946155D+00    0.653477D-07    0.141501D+00
   0    24    0.100000D+01    0.951185D+00    0.489329D-06    0.130096D+00
   0    25    0.100000D+01    0.956357D+00    0.290474D-06    0.117889D+00
   0    26    0.100000D+01    0.961674D+00   -0.744536D-05    0.104847D+00
   0    27    0.100000D+01    0.967150D+00    0.117513D-03    0.909255D-01
   0    28    0.999998D+00    0.972807D+00    0.684513D-03    0.760596D-01
   0    29    0.999984D+00    0.978691D+00   -0.207366D-02    0.601424D-01
   0    30    0.999896D+00    0.984876D+00    0.500249D-01    0.429959D-01
   0    31    0.999314D+00    0.991482D+00    0.182022D-01    0.243303D-01
   0    32    0.995714D+00    0.998676D+00    0.127463D+01    0.372911D-02
   0    33    0.973261D+00    0.100695D+01   -0.145658D+02   -0.195120D-01
   0    34    0.843127D+00    0.101728D+01   -0.196430D+02   -0.475849D-01
   0    35    0.355717D+00    0.102757D+01   -0.329109D+02   -0.745111D-01
   0    36    0.831844D-01    0.102371D+01    0.529015D+02   -0.647591D-01
   0    37    0.236581D-01    0.102092D+01   -0.201682D+01   -0.598601D-01
   0    38    0.108933D-01    0.101649D+01    0.463580D+01   -0.471251D-01
   0    39    0.883411D-02    0.101274D+01   -0.172954D+01   -0.366174D-01
   0    40    0.900024D-02    0.101039D+01   -0.356626D+01   -0.297979D-01
   0    41    0.942627D-02    0.100772D+01    0.276624D+01   -0.221342D-01
   0    42    0.985528D-02    0.100750D+01    0.190924D+01   -0.220307D-01
   0    43    0.105212D-01    0.100690D+01   -0.128083D+01   -0.196711D-01
   0    44    0.108390D-01    0.100595D+01   -0.479347D+01   -0.165056D-01
   0    45    0.111404D-01    0.100564D+01    0.493910D+00   -0.158106D-01
   0    46    0.112894D-01    0.100513D+01   -0.884476D+00   -0.151569D-01
   0    47    0.114170D-01    0.100398D+01   -0.551951D+01   -0.112930D-01
   0    48    0.116122D-01    0.100426D+01   -0.392991D+01   -0.124019D-01
   0    49    0.117227D-01    0.100404D+01   -0.426161D+01   -0.118126D-01
   0    50    0.118456D-01    0.100337D+01    0.292448D+01   -0.101031D-01
   0    51    0.121293D-01    0.100227D+01   -0.198420D+01   -0.680021D-02
   0    52    0.123736D-01    0.100209D+01   -0.149687D+00   -0.620403D-02
   0    53    0.124263D-01    0.100112D+01   -0.738961D+01   -0.301198D-02
   0    54    0.124121D-01    0.100148D+01    0.639736D+01   -0.466713D-02
   0    55    0.126875D-01    0.100159D+01    0.131862D+01   -0.533922D-02
   0    56    0.128387D-01    0.100092D+01   -0.389530D+01   -0.303385D-02
   0    57    0.129142D-01    0.100080D+01   -0.303058D+01   -0.234895D-02
   0    58    0.132383D-01    0.100027D+01   -0.443394D+00   -0.117218D-02
   0    59    0.132526D-01    0.999817D+00   -0.701794D+01    0.222523D-03
   0    60    0.135560D-01    0.100019D+01   -0.627261D+01   -0.243814D-03
   0    61    0.132363D-01    0.999933D+00    0.239395D+00    0.544356D-03
   0    62    0.135931D-01    0.999851D+00    0.755864D+01    0.323974D-03
   0    63    0.140728D-01    0.998049D+00    0.558261D+01    0.537543D-02
   0    64    0.141460D-01    0.997522D+00    0.617266D+01    0.743608D-02
   0    65    0.143485D-01    0.997602D+00    0.194064D+01    0.628992D-02
   0    66    0.139071D-01    0.997844D+00   -0.629812D+01    0.666497D-02
   0    67    0.143648D-01    0.997821D+00   -0.894979D+01    0.674276D-02
   0    68    0.143403D-01    0.998426D+00    0.681093D+01    0.502116D-02
   0    69    0.147218D-01    0.997593D+00   -0.227371D+01    0.712736D-02
   0    70    0.145664D-01    0.997298D+00   -0.330974D+01    0.801853D-02
   0    71    0.144970D-01    0.998367D+00    0.703038D+01    0.516119D-02
   0    72    0.145631D-01    0.998497D+00    0.306198D+01    0.385614D-02
   0    73    0.144858D-01    0.997865D+00   -0.470484D+01    0.618646D-02
   0    74    0.146809D-01    0.997556D+00    0.594126D+01    0.694202D-02
   0    75    0.147785D-01    0.995847D+00    0.708200D+01    0.116571D-01
   0    76    0.146139D-01    0.996169D+00   -0.225123D+01    0.103722D-01
   0    77    0.146409D-01    0.997199D+00    0.345849D+01    0.744210D-02
   0    78    0.146731D-01    0.996468D+00   -0.136410D+01    0.947880D-02
   0    79    0.145128D-01    0.996131D+00    0.538241D+01    0.106533D-01
   0    80    0.146923D-01    0.995732D+00   -0.161857D+01    0.120055D-01
   0    81    0.148459D-01    0.995410D+00    0.158086D+01    0.135668D-01
   0    82    0.149455D-01    0.996183D+00   -0.972279D-01    0.111966D-01
   0    83    0.148400D-01    0.996825D+00    0.689731D+01    0.955867D-02
   0    84    0.147561D-01    0.997092D+00   -0.869866D+01    0.793047D-02
   0    85    0.146553D-01    0.997943D+00   -0.210786D+01    0.583346D-02
   0    86    0.146046D-01    0.997974D+00    0.618717D+01    0.546349D-02
   0    87    0.150255D-01    0.997826D+00    0.131825D+01    0.620045D-02
   0    88    0.147156D-01    0.997336D+00   -0.491264D+01    0.741116D-02
   0    89    0.149889D-01    0.997020D+00   -0.703326D+01    0.869889D-02
   0    90    0.148069D-01    0.996026D+00   -0.134669D+01    0.120370D-01
   0    91    0.144154D-01    0.996898D+00    0.908294D-02    0.842321D-02
   0    92    0.148434D-01    0.997663D+00   -0.488283D+01    0.724692D-02
   0    93    0.146205D-01    0.996897D+00    0.341978D+01    0.818001D-02
   0    94    0.146689D-01    0.997029D+00    0.138790D+01    0.874398D-02
   0    95    0.144215D-01    0.996920D+00    0.551194D+01    0.901198D-02
   0    96    0.147295D-01    0.998093D+00   -0.504382D+01    0.588202D-02
   0    97    0.144740D-01    0.997330D+00    0.421449D+00    0.744497D-02
   0    98    0.147476D-01    0.997370D+00   -0.870401D-01    0.743886D-02
   0    99    0.144287D-01    0.998322D+00   -0.589561D+01    0.424869D-02
   0   100    0.149476D-01    0.997747D+00   -0.195912D+01    0.685240D-02
   0   101    0.148239D-01    0.998004D+00   -0.248761D+01    0.509064D-02
   0   102    0.145367D-01    0.996957D+00   -0.421818D+00    0.827733D-02
   0   103    0.148913D-01    0.996837D+00   -0.137621D+01    0.929785D-02
   0   104    0.149086D-01    0.996547D+00   -0.663612D+01    0.105492D-01
   0   105    0.147379D-01    0.997178D+00    0.569588D+01    0.765197D-02
   0   106    0.148284D-01    0.998625D+00    0.173152D+01    0.404287D-02
   0   107    0.147259D-01    0.998222D+00    0.148007D+01    0.569105D-02
   0   108    0.148583D-01    0.997670D+00    0.284312D+01    0.682394D-02
   0   109    0.151126D-01    0.997647D+00   -0.531522D+01    0.596877D-02
   0   110    0.151304D-01    0.997750D+00   -0.716297D+01    0.575877D-02
   0   111    0.148813D-01    0.996841D+00    0.181693D+01    0.901435D-02
   0   112    0.143740D-01    0.997695D+00    0.490634D+01    0.687119D-02
   0   113    0.148127D-01    0.998733D+00    0.755387D+01    0.411039D-02
   0   114    0.147108D-01    0.997356D+00    0.651744D+01    0.753410D-02
   0   115    0.148355D-01    0.998185D+00    0.861890D+01    0.555047D-02
   0   116    0.146105D-01    0.996456D+00    0.571855D+01    0.101717D-01
   0   117    0.148767D-01    0.996639D+00   -0.243420D+01    0.103097D-01
   0   118    0.149654D-01    0.997272D+00    0.226768D+01    0.839584D-02
   0   119    0.150571D-01    0.997928D+00    0.133720D+01    0.640470D-02
   0   120    0.148779D-01    0.997159D+00   -0.628416D+01    0.768867D-02
   0   121    0.144107D-01    0.998452D+00    0.280399D+01    0.497481D-02
   0   122    0.144118D-01    0.998068D+00    0.179188D+01    0.515354D-02
   0   123    0.147345D-01    0.997923D+00    0.862826D+01    0.571864D-02
   0   124    0.146827D-01    0.997669D+00    0.258845D+01    0.603826D-02
   0   125    0.146239D-01    0.998224D+00    0.827498D+01    0.482227D-02
   0   126    0.143595D-01    0.997602D+00   -0.233143D+01    0.660816D-02
   0   127    0.144013D-01    0.997335D+00   -0.240173D+01    0.802692D-02
   0   128    0.146188D-01    0.996795D+00   -0.557999D+01    0.972330D-02
   0   129    0.145384D-01    0.996537D+00   -0.373784D+01    0.948999D-02
   0   130    0.144887D-01    0.997266D+00   -0.100394D+01    0.857967D-02
   0   131    0.142712D-01    0.997275D+00    0.420081D+01    0.738996D-02
   0   132    0.148534D-01    0.998729D+00   -0.365395D+01    0.440548D-02
   0   133    0.145168D-01    0.997943D+00    0.758803D+01    0.614145D-02
   0   134    0.149195D-01    0.997883D+00   -0.761811D+01    0.605557D-02
   0   135    0.139086D-01    0.998019D+00    0.741313D+01    0.609826D-02
   0   136    0.140447D-01    0.998023D+00    0.562790D+01    0.609480D-02
   0   137    0.142426D-01    0.997452D+00   -0.758907D+01    0.702427D-02
   0   138    0.144010D-01    0.997397D+00   -0.798193D+01    0.754569D-02
   0   139    0.144237D-01    0.997607D+00    0.601724D+01    0.652485D-02
   0   140    0.144963D-01    0.997455D+00    0.636305D+01    0.713054D-02
   0   141    0.141888D-01    0.997122D+00    0.778369D+01    0.843553D-02
   0   142    0.145660D-01    0.997364D+00   -0.945178D+01    0.785889D-02
   0   143    0.142454D-01    0.997585D+00   -0.832986D+01    0.658381D-02
   0   144    0.145016D-01    0.997621D+00   -0.630456D+01    0.615356D-02
   0   145    0.144461D-01    0.997498D+00    0.248415D+01    0.745336D-02
   0   146    0.141276D-01    0.997247D+00   -0.473841D+01    0.837334D-02
   0   147    0.143636D-01    0.997240D+00    0.187352D+01    0.763599D-02
   0   148    0.146417D-01    0.998134D+00   -0.646656D+01    0.589364D-02
   0   149    0.138335D-01    0.997297D+00    0.193566D+01    0.805263D-02
   0   150    0.144255D-01    0.997349D+00    0.735326D+01    0.800094D-02
   0   151    0.144964D-01    0.995923D+00   -0.622180D+01    0.115227D-01
   0   152    0.143947D-01    0.997943D+00   -0.686744D+01    0.611407D-02
   0   153    0.143441D-01    0.998079D+00    0.484030D+01    0.548218D-02
   0   154    0.144481D-01    0.997763D+00    0.177292D+01    0.669228D-02
   0   155    0.142734D-01    0.997338D+00    0.590277D+00    0.765433D-02
   0   156    0.141244D-01    0.997100D+00    0.962174D+01    0.846781D-02
   0   157    0.147996D-01    0.996313D+00    0.659708D+01    0.101842D-01
   0   158    0.150328D-01    0.996799D+00   -0.492108D+01    0.888640D-02
   0   159    0.147268D-01    0.997232D+00   -0.366876D+01    0.720649D-02
   0   160    0.147777D-01    0.997824D+00    0.794650D+00    0.619696D-02
   0   161    0.140200D-01    0.996869D+00    0.582828D+01    0.869614D-02
   0   162    0.141752D-01    0.996654D+00    0.263648D+01    0.919495D-02
   0   163    0.144366D-01    0.997208D+00   -0.537878D+01    0.775091D-02
   0   164    0.144393D-01    0.997796D+00    0.714979D+01    0.644784D-02
   0   165    0.143464D-01    0.998603D+00   -0.631215D+00    0.455100D-02
   0   166    0.146093D-01    0.998871D+00    0.517868D+01    0.338677D-02
   0   167    0.147300D-01    0.999466D+00   -0.151657D+01    0.183365D-02
   0   168    0.146151D-01    0.999619D+00    0.253270D+01    0.101807D-02
   0   169    0.144107D-01    0.998310D+00    0.120184D+01    0.508310D-02
   0   170    0.140546D-01    0.997369D+00    0.201170D+01    0.712956D-02
   0   171    0.139188D-01    0.997654D+00    0.377551D+01    0.660332D-02
   0   172    0.142046D-01    0.997426D+00    0.772254D+01    0.812127D-02
   0   173    0.143539D-01    0.996813D+00    0.207479D+01    0.861752D-02
   0   174    0.143922D-01    0.997995D+00    0.460195D+01    0.634790D-02
   0   175    0.145192D-01    0.997442D+00    0.174346D+01    0.697401D-02
   0   176    0.146115D-01    0.997378D+00    0.223290D+01    0.742772D-02
   0   177    0.150656D-01    0.997593D+00   -0.799414D+01    0.698107D-02
   0   178    0.147887D-01    0.997026D+00    0.638828D+01    0.849038D-02
   0   179    0.150371D-01    0.996152D+00   -0.717991D+01    0.109471D-01
   0   180    0.149065D-01    0.996392D+00    0.792128D+01    0.106563D-01
   0   181    0.151281D-01    0.995629D+00   -0.290137D+01    0.124757D-01
   0   182    0.153073D-01    0.995322D+00   -0.258349D+01    0.135803D-01
   0   183    0.161382D-01    0.993403D+00   -0.572117D+01    0.184541D-01
   0   184    0.165080D-01    0.992497D+00   -0.949518D+01    0.219223D-01
   0   185    0.172968D-01    0.990195D+00   -0.759820D+01    0.283374D-01
   0   186    0.189393D-01    0.984682D+00    0.544651D+01    0.438153D-01
   0   187    0.213353D-01    0.976098D+00    0.402682D+01    0.668178D-01
   0   188    0.237739D-01    0.961896D+00   -0.278565D+00    0.104445D+00
   0   189    0.265820D-01    0.940573D+00   -0.378630D+01    0.154303D+00
   0   190    0.285769D-01    0.905664D+00    0.701424D+01    0.216898D+00
   0   191    0.250992D-01    0.852764D+00    0.858584D+01    0.279361D+00
   0   192    0.178394D-01    0.775879D+00    0.912475D+01    0.330019D+00
   0   193    0.967866D-02    0.677534D+00    0.822517D+01    0.364013D+00
   0   194    0.451418D-02    0.568239D+00    0.104162D+01    0.384875D+00
   0   195    0.184271D-02    0.459221D+00    0.205910D+01    0.397666D+00
   0   196    0.713635D-03    0.359552D+00    0.303597D+00    0.405658D+00
   0   197    0.261903D-03    0.274103D+00    0.198776D+00    0.410802D+00
   0   198    0.871936D-04    0.204171D+00    0.942494D-01    0.414204D+00
   0   199    0.299765D-04    0.149064D+00    0.189210D-01    0.416497D+00
   0   200    0.971990D-05    0.106939D+00    0.123865D-01    0.418061D+00
   0   201    0.302659D-05    0.755481D-01    0.982604D-03    0.419135D+00
   0   202    0.937948D-06    0.526568D-01    0.116677D-02    0.419874D+00
   0   203    0.284221D-06    0.362706D-01    0.207275D-03    0.420382D+00
   0   204    0.845723D-07    0.247267D-01    0.103221D-03    0.420730D+00
   0   205    0.242241D-07    0.167055D-01    0.189985D-04    0.420966D+00
   0   206    0.695857D-08    0.111977D-01    0.375931D-05    0.421127D+00
   0   207    0.201959D-08    0.745448D-02    0.234846D-05    0.421234D+00
   0   208    0.590161D-09    0.493290D-02    0.713974D-06    0.421307D+00
   0   209    0.182427D-09    0.324725D-02    0.126655D-07    0.421355D+00
   0   210    0.550365D-10    0.212787D-02    0.136380D-07    0.421387D+00
   0   211    0.171568D-10    0.138881D-02    0.221481D-08    0.421408D+00
   0   212    0.518680D-11    0.903274D-03    0.565289D-08    0.421421D+00
   0   213    0.153848D-11    0.585689D-03    0.130912D-08    0.421430D+00
   0   214    0.449689D-12    0.378745D-03    0.295936D-09    0.421436D+00
   0   215    0.131290D-12    0.244343D-03    0.154069D-09    0.421440D+00
   0   216    0.375694D-13    0.157307D-03    0.110362D-10    0.421443D+00
   0   217    0.104691D-13    0.101088D-03    0.124044D-10    0.421444D+00
   0   218    0.295124D-14    0.648557D-04    0.137643D-11    0.421445D+00
   0   219    0.827584D-15    0.415504D-04    0.992959D-12    0.421446D+00
   0   220    0.223871D-15    0.265860D-04    0.791117D-13    0.421446D+00
   0   221    0.623108D-16    0.169920D-04    0.433552D-13    0.421447D+00
   0   222    0.168790D-16    0.108494D-04    0.138291D-13    0.421447D+00
   0   223    0.448683D-17    0.692120D-05    0.318252D-14    0.421447D+00
   0   224    0.122145D-17    0.441184D-05    0.850730D-15    0.421447D+00
   0   225    0.319282D-18    0.281033D-05    0.914996D-16    0.421447D+00
   0   226    0.841048D-19    0.178906D-05    0.663009D-16    0.421447D+00
   0   227    0.223889D-19    0.113830D-05    0.289930D-16    0.421447D+00
   0   228    0.568869D-20    0.723893D-06    0.585426D-17    0.421447D+00
   0   229    0.147437D-20    0.460153D-06    0.153484D-17    0.421447D+00
   0   230    0.377111D-21    0.292389D-06    0.265164D-18    0.421447D+00
   0   231    0.938743D-22    0.185723D-06    0.115277D-18    0.421447D+00
   0   232    0.239225D-22    0.117933D-06    0.326423D-19    0.421447D+00
   0   233    0.619405D-23    0.748655D-07    0.364119D-20    0.421447D+00
   0   234    0.155887D-23    0.475134D-07    0.156829D-20    0.421447D+00
   0   235    0.395698D-24    0.301475D-07    0.360560D-21    0.421447D+00
   0   236    0.983882D-25    0.191247D-07    0.947129D-22    0.421447D+00
   0   237    0.245615D-25    0.121298D-07    0.247635D-22    0.421447D+00
   0   238    0.610276D-26    0.769200D-08    0.454587D-23    0.421447D+00
   0   239    0.157216D-26    0.487703D-08    0.197953D-23    0.421447D+00
   0   240    0.380467D-27    0.309177D-08    0.227217D-24    0.421447D+00
   0   241    0.946033D-28    0.195976D-08    0.116925D-24    0.421447D+00
   0   242    0.231964D-28    0.124206D-08    0.129867D-25    0.421447D+00
   0   243    0.572472D-29    0.787111D-09    0.450045D-26    0.421447D+00
   0   244    0.140306D-29    0.498751D-09    0.157858D-26    0.421447D+00
   0   245    0.337621D-30    0.316002D-09    0.131833D-27    0.421447D+00
   0   246    0.818406D-31    0.200197D-09    0.209401D-28    0.421447D+00
   0   247    0.198714D-31    0.126821D-09    0.126424D-28    0.421447D+00
   0   248    0.468967D-32    0.803326D-10    0.196269D-29    0.421447D+00
   0   249    0.116797D-32    0.508819D-10    0.994164D-30    0.421447D+00
   0   250    0.287862D-33    0.322261D-10    0.130078D-30    0.421447D+00
   0   251    0.699004D-34    0.204093D-10    0.389892D-31    0.421447D+00
   0   252    0.165713D-34    0.129248D-10    0.756099D-32    0.421447D+00
   0   253    0.397053D-35    0.818467D-11    0.163546D-32    0.421447D+00
   0   254    0.969343D-36    0.518273D-11    0.353491D-33    0.421447D+00
   0   255    0.239712D-36    0.328171D-11    0.228192D-33    0.421447D+00
   0   256    0.558346D-37    0.207790D-11    0.696702D-34    0.421447D+00
   0   257    0.135766D-37    0.131564D-11    0.108681D-34    0.421447D+00
   0   258    0.329464D-38    0.832984D-12    0.278536D-35    0.421447D+00
   0   259    0.807999D-39    0.527381D-12    0.798860D-36    0.421447D+00
   0   260    0.190104D-39    0.333889D-12    0.115155D-36    0.421447D+00
   0   261    0.462028D-40    0.211384D-12    0.648649D-37    0.421447D+00
   0   262    0.109300D-40    0.133823D-12    0.105723D-37    0.421447D+00
   0   263    0.261712D-41    0.847199D-13    0.292789D-38    0.421447D+00
   0   264    0.610985D-42    0.536329D-13    0.275559D-39    0.421447D+00
   0   265    0.149866D-42    0.339525D-13    0.166341D-39    0.421447D+00
   0   266    0.362114D-43    0.214934D-13    0.255010D-40    0.421447D+00
   0   267    0.851209D-44    0.136061D-13    0.787248D-41    0.421447D+00
   0   268    0.201679D-44    0.861307D-14    0.111402D-41    0.421447D+00
   0   269    0.487951D-45    0.545225D-14    0.266174D-42    0.421447D+00
   0   270    0.116692D-45    0.345135D-14    0.166600D-42    0.421447D+00
   0   271    0.276821D-46    0.218473D-14    0.198462D-43    0.421447D+00
   0   272    0.667710D-47    0.138293D-14    0.185377D-44    0.421447D+00
   0   273    0.160574D-47    0.875387D-15    0.214823D-44    0.421447D+00
   0   274    0.376878D-48    0.554107D-15    0.211200D-45    0.421447D+00
   0   275    0.891131D-49    0.350737D-15    0.127065D-45    0.421447D+00
   0   276    0.210018D-49    0.222006D-15    0.235966D-46    0.421447D+00
   0   277    0.501347D-50    0.140521D-15    0.299560D-47    0.421447D+00
   0   278    0.119138D-50    0.889427D-16    0.124092D-47    0.421447D+00
   0   279    0.291880D-51    0.562956D-16    0.897973D-49    0.421447D+00
   0   280    0.683199D-52    0.356313D-16    0.760428D-49    0.421447D+00
   0   281    0.162484D-52    0.225518D-16    0.163821D-49    0.421447D+00
   0   282    0.384796D-53    0.142733D-16    0.316556D-50    0.421447D+00
   0   283    0.919738D-54    0.903357D-17    0.952087D-51    0.421447D+00
   0   284    0.221994D-54    0.571724D-17    0.146889D-51    0.421447D+00
   0   285    0.532710D-55    0.361831D-17    0.722911D-52    0.421447D+00
   0   286    0.125942D-55    0.228990D-17    0.162516D-52    0.421447D+00
   0   287    0.302911D-56    0.144917D-17    0.412878D-53    0.421447D+00
   0   288    0.722059D-57    0.917089D-18    0.982166D-54    0.421447D+00
   0   289    0.172609D-57    0.580357D-18    0.619948D-55    0.421447D+00
   0   290    0.404077D-58    0.367257D-18    0.152415D-55    0.421447D+00
   0   291    0.961744D-59    0.232399D-18    0.655623D-56    0.421447D+00
   0   292    0.216708D-59    0.147059D-18    0.168550D-56    0.421447D+00
   0   293    0.531707D-60    0.930543D-19    0.518801D-57    0.421447D+00
   0   294    0.122355D-60    0.588806D-19    0.555185D-58    0.421447D+00
   0   295    0.291200D-61    0.372562D-19    0.325156D-58    0.421447D+00
   0   296    0.708442D-62    0.235730D-19    0.233991D-59    0.421447D+00
   0   297    0.165367D-62    0.149149D-19    0.122466D-59    0.421447D+00
   0   298    0.401333D-63    0.943663D-20    0.115792D-60    0.421447D+00
   0   299    0.952601D-64    0.597040D-20    0.124715D-60    0.421447D+00
   0   300    0.223916D-64    0.377728D-20    0.320356D-61    0.421447D+00
   0   301    0.525752D-65    0.238971D-20    0.589412D-62    0.421447D+00
   0   302    0.122764D-65    0.151182D-20    0.959864D-63    0.421447D+00
   0   303    0.298350D-66    0.956416D-21    0.345153D-63    0.421447D+00
   0   304    0.701384D-67    0.605038D-21    0.383519D-64    0.421447D+00
   0   305    0.166058D-67    0.382744D-21    0.869089D-65    0.421447D+00
   0   306    0.380213D-68    0.242116D-21    0.284085D-65    0.421447D+00
   0   307    0.886915D-69    0.153154D-21    0.116201D-65    0.421447D+00
   0   308    0.206749D-69    0.968779D-22    0.173488D-66    0.421447D+00
   0   309    0.479132D-70    0.612788D-22    0.506809D-67    0.421447D+00
   0   310    0.114981D-70    0.387601D-22    0.141373D-67    0.421447D+00
   0   311    0.274536D-71    0.245160D-22    0.210902D-68    0.421447D+00
   0   312    0.652028D-72    0.155061D-22    0.356478D-69    0.421447D+00
   0   313    0.154100D-72    0.980724D-23    0.878979D-70    0.421447D+00
   0   314    0.364531D-73    0.620267D-23    0.482632D-70    0.421447D+00
   0   315    0.869628D-74    0.392283D-23    0.106967D-70    0.421447D+00
   0   316    0.204017D-74    0.248090D-23    0.196484D-71    0.421447D+00
   0   317    0.497346D-75    0.156894D-23    0.101487D-72    0.421447D+00
   0   318    0.115717D-75    0.992181D-24    0.119651D-72    0.421447D+00
   0   319    0.280531D-76    0.627426D-24    0.276397D-73    0.421447D+00
   0   320    0.660629D-77    0.396753D-24    0.875273D-74    0.421447D+00
   0   321    0.155503D-77    0.250878D-24    0.803510D-75    0.421447D+00
   0   322    0.366948D-78    0.158632D-24    0.121298D-75    0.421447D+00
   0   323    0.865716D-79    0.100300D-24    0.723215D-76    0.421447D+00
   0   324    0.198971D-79    0.634157D-25    0.150946D-76    0.421447D+00
   0   325    0.460403D-80    0.400934D-25    0.497136D-77    0.421447D+00
   0   326    0.110093D-80    0.253471D-25    0.812594D-78    0.421447D+00
   0   327    0.263164D-81    0.160237D-25    0.322963D-78    0.421447D+00
   0   328    0.630965D-82    0.101292D-25    0.429623D-79    0.421447D+00
   0   329    0.146972D-82    0.640271D-26    0.172291D-79    0.421447D+00
   0   330    0.348092D-83    0.404693D-26    0.298620D-80    0.421447D+00
   0   331    0.801955D-84    0.255775D-26    0.448137D-81    0.421447D+00
   0   332    0.190240D-84    0.161645D-26    0.157189D-81    0.421447D+00
   0   333    0.458622D-85    0.102149D-26    0.275806D-82    0.421447D+00
   0   334    0.104239D-85    0.645460D-27    0.110919D-82    0.421447D+00
   0   335    0.247581D-86    0.407819D-27    0.338151D-83    0.421447D+00
   0   336    0.592072D-87    0.257648D-27    0.502775D-84    0.421447D+00
   0   337    0.141810D-87    0.162758D-27    0.906237D-85    0.421447D+00
   0   338    0.333438D-88    0.102804D-27    0.247103D-85    0.421447D+00
   0   339    0.789533D-89    0.649279D-28    0.281347D-86    0.421447D+00
   0   340    0.184923D-89    0.410014D-28    0.151204D-86    0.421447D+00
   0   341    0.427368D-90    0.258887D-28    0.516675D-87    0.421447D+00
   0   342    0.103214D-90    0.163441D-28    0.321276D-88    0.421447D+00
   0   343    0.242226D-91    0.103169D-28    0.113631D-88    0.421447D+00
   0   344    0.563902D-92    0.651130D-29    0.839125D-89    0.421447D+00
   0   345    0.132512D-92    0.410880D-29    0.862453D-90    0.421447D+00
   0   346    0.309708D-93    0.259230D-29    0.243406D-90    0.421447D+00
   0   347    0.743160D-94    0.163522D-29    0.869976D-91    0.421447D+00
   0   348    0.172248D-94    0.103129D-29    0.245207D-91    0.421447D+00
   0   349    0.406163D-95    0.650268D-30    0.209081D-92    0.421447D+00
   0   350    0.950626D-96    0.409931D-30    0.915415D-93    0.421447D+00
   0   351    0.222699D-96    0.258362D-30    0.255467D-93    0.421447D+00
   0   352    0.528314D-97    0.162795D-30    0.711252D-94    0.421447D+00
   0   353    0.128249D-97    0.102551D-30    0.312552D-95    0.421447D+00
   0   354    0.298396D-98    0.645842D-31    0.415750D-95    0.421447D+00
   0   355    0.678250D-99    0.406620D-31    0.416224D-96    0.421447D+00
   0   356    0.162402D-99    0.255932D-31    0.124792D-96    0.421447D+00
   0   357    0.380504-100    0.161038D-31    0.176776D-97    0.421447D+00
   0   358    0.906644-101    0.101296D-31    0.650973D-98    0.421447D+00
   0   359    0.212430-101    0.636957D-32    0.162979D-98    0.421447D+00
   0   360    0.502441-102    0.400386D-32    0.254107D-99    0.421447D+00
   0   361    0.119517-102    0.251588D-32    0.606943-100    0.421447D+00
   0   362    0.278088-103    0.158030D-32    0.108862-100    0.421447D+00
   0   363    0.649384-104    0.992251D-33    0.607866-101    0.421447D+00
   0   364    0.152903-104    0.622771D-33    0.102594-101    0.421447D+00
   0   365    0.357348-105    0.390711D-33    0.394966-102    0.421447D+00
   0   366    0.850321-106    0.245017D-33    0.854711-103    0.421447D+00
   0   367    0.201785-106    0.153583D-33    0.193138-103    0.421447D+00
   0   368    0.480813-107    0.962261D-34    0.683038-104    0.421447D+00
   0   369    0.110107-107    0.602612D-34    0.693133-105    0.421447D+00
   0   370    0.266223-108    0.377201D-34    0.154588-105    0.421447D+00
   0   371    0.620727-109    0.235989D-34    0.325346-106    0.421447D+00
   0   372    0.143482-109    0.147566D-34    0.101000-106    0.421447D+00
   0   373    0.337253-110    0.922266D-35    0.432803-107    0.421447D+00
   0   374    0.782333-111    0.576091D-35    0.102639-107    0.421447D+00
   0   375    0.182663-111    0.359655D-35    0.136855-108    0.421447D+00
   0   376    0.434623-112    0.224407D-35    0.441666-109    0.421447D+00
   0   377    0.104070-112    0.139938D-35    0.328818-110    0.421447D+00
   0   378    0.245908-113    0.872125D-36    0.258044-110    0.421447D+00
   0   379    0.578068-114    0.543201D-36    0.400981-111    0.421447D+00
   0   380    0.134705-114    0.338123D-36    0.127981-111    0.421447D+00
   0   381    0.318231-115    0.210338D-36    0.329875-112    0.421447D+00
   0   382    0.733769-116    0.130762D-36    0.891785-113    0.421447D+00
   0   383    0.172778-116    0.812390D-37    0.833075-114    0.421447D+00
   0   384    0.403160-117    0.504382D-37    0.403324-114    0.421447D+00
   0   385    0.934388-118    0.312940D-37    0.114183-114    0.421447D+00
   0   386    0.221356-118    0.194029D-37    0.117727-115    0.421447D+00
   0   387    0.506006-119    0.120218D-37    0.423098-116    0.421447D+00
   0   388    0.120394-119    0.744327D-38    0.117663-116    0.421447D+00
   0   389    0.279804-120    0.460515D-38    0.109253-117    0.421447D+00
   0   390    0.645442-121    0.284708D-38    0.293997-118    0.421447D+00
   0   391    0.153785-121    0.175877D-38    0.168475-118    0.421447D+00
   0   392    0.371297-122    0.108550D-38    0.325549-119    0.421447D+00
   0   393    0.874279-123    0.669174D-39    0.847048-120    0.421447D+00
   0   394    0.203693-123    0.411755D-39    0.292796-120    0.421447D+00
   0   395    0.487420-124    0.252419D-39    0.653259-121    0.421447D+00
   0   396    0.114648-124    0.153398D-39    0.574755-122    0.421447D+00
   0   397    0.272065-125    0.911403D-40    0.273200-122    0.421447D+00