variables =  "IG"  "JG"  "PHI"  "Temp."  "Latent_heat"  "mm"
ZONE  I=  401  J=  101
   0     0    0.100000D+01    0.894096D+00    0.000000D+00    0.233216D+00
   0     1    0.100000D+01    0.894096D+00    0.000000D+00    0.233216D+00
   0     2    0.100000D+01    0.894335D+00    0.000000D+00    0.232892D+00
   0     3    0.100000D+01    0.894813D+00    0.000000D+00    0.232243D+00
   0     4    0.100000D+01    0.895529D+00    0.000000D+00    0.231267D+00
   0     5    0.100000D+01    0.896479D+00    0.000000D+00    0.229959D+00
   0     6    0.100000D+01    0.897661D+00    0.000000D+00    0.228314D+00
   0     7    0.100000D+01    0.899072D+00    0.000000D+00    0.226326D+00
   0     8    0.100000D+01    0.900706D+00    0.000000D+00    0.223988D+00
   0     9    0.100000D+01    0.902560D+00    0.000000D+00    0.221290D+00
   0    10    0.100000D+01    0.904626D+00    0.000000D+00    0.218221D+00
   0    11    0.100000D+01    0.906900D+00    0.000000D+00    0.214770D+00
   0    12    0.100000D+01    0.909376D+00    0.000000D+00    0.210924D+00
   0    13    0.100000D+01    0.912045D+00    0.000000D+00    0.206668D+00
   0    14    0.100000D+01    0.914903D+00    0.000000D+00    0.201987D+00
   0    15    0.100000D+01    0.917940D+00    0.000000D+00    0.196863D+00
   0    16    0.100000D+01    0.921152D+00    0.000000D+00    0.191279D+00
   0    17    0.100000D+01    0.924529D+00    0.000000D+00    0.185213D+00
   0    18    0.100000D+01    0.928066D+00    0.000000D+00    0.178647D+00
   0    19    0.100000D+01    0.931756D+00    0.000000D+00    0.171558D+00
   0    20    0.100000D+01    0.935593D+00    0.000000D+00    0.163923D+00
   0    21    0.100000D+01    0.939572D+00   -0.159872D-09    0.155721D+00
   0    22    0.100000D+01    0.943688D+00    0.159872D-08    0.146926D+00
   0    23    0.100000D+01    0.947937D+00    0.558220D-08    0.137515D+00
   0    24    0.100000D+01    0.952318D+00    0.385425D-07    0.127464D+00
   0    25    0.100000D+01    0.956832D+00    0.129123D-06    0.116745D+00
   0    26    0.100000D+01    0.961482D+00    0.446118D-05    0.105329D+00
   0    27    0.100000D+01    0.966278D+00   -0.548217D-05    0.931758D-01
   0    28    0.100000D+01    0.971238D+00    0.933899D-04    0.802296D-01
   0    29    0.999998D+00    0.976397D+00   -0.348176D-03    0.664012D-01
   0    30    0.999985D+00    0.981811D+00   -0.797117D-02    0.515414D-01
   0    31    0.999904D+00    0.987578D+00   -0.400520D-01    0.354042D-01
   0    32    0.999379D+00    0.993847D+00   -0.180971D-01    0.175974D-01
   0    33    0.996122D+00    0.100086D+01    0.231587D+01   -0.245836D-02
   0    34    0.976048D+00    0.100894D+01    0.161589D+01   -0.256958D-01
   0    35    0.859788D+00    0.101631D+01   -0.213038D+02   -0.469688D-01
   0    36    0.396726D+00    0.102734D+01   -0.732016D+02   -0.722664D-01
   0    37    0.959495D-01    0.102618D+01   -0.277657D+02   -0.733796D-01
   0    38    0.261744D-01    0.102206D+01    0.834020D+01   -0.627842D-01
   0    39    0.113391D-01    0.101739D+01   -0.472201D+01   -0.493624D-01
   0    40    0.867584D-02    0.101367D+01    0.145706D+01   -0.385316D-01
   0    41    0.890693D-02    0.101075D+01    0.297230D+01   -0.309061D-01
   0    42    0.959077D-02    0.100921D+01   -0.376372D+00   -0.262764D-01
   0    43    0.103758D-01    0.100744D+01   -0.553686D+01   -0.215308D-01
   0    44    0.104650D-01    0.100715D+01   -0.662488D+00   -0.203606D-01
   0    45    0.109733D-01    0.100614D+01   -0.520178D+01   -0.178917D-01
   0    46    0.111635D-01    0.100490D+01    0.384416D+01   -0.133456D-01
   0    47    0.115065D-01    0.100501D+01   -0.577332D+01   -0.141585D-01
   0    48    0.117026D-01    0.100306D+01    0.553222D+01   -0.846220D-02
   0    49    0.118528D-01    0.100324D+01    0.559160D+01   -0.975804D-02
   0    50    0.122705D-01    0.100222D+01   -0.791563D+01   -0.629329D-02
   0    51    0.124073D-01    0.100209D+01   -0.457191D+00   -0.641160D-02
   0    52    0.128203D-01    0.100175D+01    0.315824D+01   -0.476696D-02
   0    53    0.124709D-01    0.100141D+01   -0.564062D+01   -0.462223D-02
   0    54    0.127106D-01    0.100035D+01   -0.238652D+01   -0.142419D-02
   0    55    0.126368D-01    0.100055D+01    0.534277D+01   -0.171954D-02
   0    56    0.130556D-01    0.100133D+01    0.486492D+01   -0.331416D-02
   0    57    0.131094D-01    0.100128D+01    0.369780D+01   -0.348190D-02
   0    58    0.131962D-01    0.100089D+01   -0.369970D+01   -0.186590D-02
   0    59    0.135316D-01    0.100076D+01   -0.977474D-01   -0.231638D-02
   0    60    0.134546D-01    0.100002D+01   -0.900065D+00   -0.658025D-03
   0    61    0.136834D-01    0.999428D+00    0.245083D+01    0.163377D-02
   0    62    0.138535D-01    0.999639D+00   -0.252981D+00    0.119901D-02
   0    63    0.135946D-01    0.100060D+01    0.745195D+01   -0.142995D-02
   0    64    0.141786D-01    0.999800D+00    0.408742D+01    0.128493D-02
   0    65    0.143835D-01    0.999396D+00    0.363729D+01    0.991684D-03
   0    66    0.141034D-01    0.998566D+00    0.325020D+01    0.482407D-02
   0    67    0.141923D-01    0.998492D+00   -0.760077D+01    0.493318D-02
   0    68    0.143985D-01    0.998030D+00   -0.320165D+01    0.574145D-02
   0    69    0.139312D-01    0.997804D+00    0.736988D+01    0.644907D-02
   0    70    0.145349D-01    0.996543D+00   -0.837594D+01    0.102969D-01
   0    71    0.146297D-01    0.996748D+00   -0.812123D+01    0.985111D-02
   0    72    0.144657D-01    0.997131D+00   -0.442151D+01    0.885033D-02
   0    73    0.146945D-01    0.997726D+00   -0.139002D+01    0.691887D-02
   0    74    0.147468D-01    0.996984D+00   -0.490101D+01    0.831728D-02
   0    75    0.151005D-01    0.996836D+00   -0.616726D+01    0.940061D-02
   0    76    0.149240D-01    0.997097D+00   -0.902309D+01    0.880963D-02
   0    77    0.149986D-01    0.997103D+00    0.333950D+01    0.893534D-02
   0    78    0.145277D-01    0.997654D+00    0.490495D+01    0.701583D-02
   0    79    0.149428D-01    0.997070D+00    0.195676D+01    0.784366D-02
   0    80    0.147326D-01    0.997692D+00    0.347129D+01    0.709477D-02
   0    81    0.149864D-01    0.998373D+00   -0.663463D+01    0.403044D-02
   0    82    0.148472D-01    0.997917D+00   -0.102283D+01    0.558727D-02
   0    83    0.152557D-01    0.997125D+00    0.615522D+01    0.804210D-02
   0    84    0.147728D-01    0.998052D+00    0.183529D+01    0.536217D-02
   0    85    0.149304D-01    0.997159D+00    0.812226D+01    0.815320D-02
   0    86    0.149541D-01    0.996968D+00   -0.442536D+01    0.871592D-02
   0    87    0.147164D-01    0.996660D+00   -0.327979D+01    0.988787D-02
   0    88    0.147034D-01    0.996396D+00    0.100878D+01    0.110186D-01
   0    89    0.148648D-01    0.996261D+00   -0.525901D+01    0.107753D-01
   0    90    0.152223D-01    0.997154D+00   -0.960194D+01    0.766514D-02
   0    91    0.149772D-01    0.998184D+00    0.394969D+01    0.508200D-02
   0    92    0.152268D-01    0.997973D+00   -0.779333D+01    0.609127D-02
   0    93    0.150003D-01    0.996842D+00    0.400858D+00    0.935540D-02
   0    94    0.150329D-01    0.995468D+00   -0.915337D+01    0.132813D-01
   0    95    0.148386D-01    0.996486D+00   -0.566863D+01    0.104110D-01
   0    96    0.147455D-01    0.996531D+00   -0.769517D+01    0.100172D-01
   0    97    0.150042D-01    0.996252D+00    0.885118D-01    0.110344D-01
   0    98    0.150613D-01    0.996984D+00   -0.147554D+01    0.846782D-02
   0    99    0.148944D-01    0.996780D+00    0.193052D+01    0.895005D-02
   0   100    0.152256D-01    0.998051D+00    0.413665D+01    0.605496D-02
   0   101    0.149378D-01    0.997227D+00    0.878867D+01    0.824510D-02
   0   102    0.145784D-01    0.996990D+00   -0.674204D+01    0.841845D-02
   0   103    0.144921D-01    0.997423D+00    0.731341D+01    0.701306D-02
   0   104    0.145201D-01    0.996658D+00    0.255593D+01    0.917384D-02
   0   105    0.149231D-01    0.996323D+00    0.819895D+01    0.997927D-02
   0   106    0.154998D-01    0.995449D+00    0.500534D+01    0.133767D-01
   0   107    0.152926D-01    0.996882D+00   -0.491219D+01    0.928857D-02
   0   108    0.149429D-01    0.995926D+00   -0.163383D+01    0.109906D-01
   0   109    0.148889D-01    0.996858D+00   -0.307908D+01    0.842982D-02
   0   110    0.148844D-01    0.996627D+00   -0.341231D+01    0.961287D-02
   0   111    0.147630D-01    0.997581D+00   -0.200703D+01    0.637948D-02
   0   112    0.150368D-01    0.997549D+00    0.172133D+01    0.708478D-02
   0   113    0.153507D-01    0.996953D+00   -0.998198D+01    0.905951D-02
   0   114    0.148516D-01    0.997707D+00    0.863344D+01    0.706589D-02
   0   115    0.150866D-01    0.996169D+00    0.504158D+01    0.104761D-01
   0   116    0.150878D-01    0.996742D+00    0.594114D+01    0.894688D-02
   0   117    0.149679D-01    0.996118D+00   -0.698464D+00    0.107260D-01
   0   118    0.149994D-01    0.995976D+00   -0.141625D+01    0.120359D-01
   0   119    0.148641D-01    0.995972D+00   -0.569497D+01    0.116567D-01
   0   120    0.147419D-01    0.997390D+00   -0.211422D+01    0.684016D-02
   0   121    0.153091D-01    0.998260D+00    0.227966D+01    0.484753D-02
   0   122    0.148125D-01    0.998442D+00    0.582223D+01    0.413723D-02
   0   123    0.150877D-01    0.997832D+00   -0.245543D+01    0.638880D-02
   0   124    0.146393D-01    0.998466D+00   -0.647441D+01    0.398616D-02
   0   125    0.144955D-01    0.997807D+00    0.868328D+00    0.596707D-02
   0   126    0.146790D-01    0.997929D+00    0.540725D+01    0.602224D-02
   0   127    0.150233D-01    0.998073D+00    0.653459D+01    0.592999D-02
   0   128    0.153388D-01    0.997507D+00   -0.805593D+01    0.685704D-02
   0   129    0.148992D-01    0.997218D+00    0.353250D+01    0.770134D-02
   0   130    0.149744D-01    0.996741D+00    0.309250D+00    0.917916D-02
   0   131    0.151111D-01    0.996911D+00   -0.659521D+01    0.917915D-02
   0   132    0.147813D-01    0.997825D+00    0.730896D+01    0.638640D-02
   0   133    0.149471D-01    0.997321D+00   -0.556016D+01    0.790463D-02
   0   134    0.149148D-01    0.996238D+00    0.277054D+01    0.114459D-01
   0   135    0.149565D-01    0.997075D+00   -0.498023D+01    0.843949D-02
   0   136    0.150243D-01    0.997991D+00   -0.537087D+01    0.579616D-02
   0   137    0.148113D-01    0.997184D+00   -0.277169D+01    0.817004D-02
   0   138    0.144505D-01    0.997447D+00   -0.649888D+01    0.739029D-02
   0   139    0.144955D-01    0.999040D+00    0.680055D+01    0.287272D-02
   0   140    0.145921D-01    0.997464D+00   -0.151490D+01    0.730508D-02
   0   141    0.146636D-01    0.997975D+00    0.686116D+01    0.631654D-02
   0   142    0.148829D-01    0.998658D+00   -0.870507D+01    0.303948D-02
   0   143    0.151333D-01    0.997787D+00   -0.441536D+01    0.592625D-02
   0   144    0.151381D-01    0.998960D+00    0.787502D+01    0.312560D-02
   0   145    0.148779D-01    0.998519D+00    0.349569D+01    0.382626D-02
   0   146    0.143467D-01    0.998459D+00   -0.437621D+01    0.446650D-02
   0   147    0.148946D-01    0.997528D+00   -0.154067D+01    0.768142D-02
   0   148    0.147238D-01    0.997358D+00   -0.719241D+01    0.819398D-02
   0   149    0.146338D-01    0.997262D+00    0.768333D+01    0.802118D-02
   0   150    0.149012D-01    0.997404D+00   -0.241855D+00    0.792665D-02
   0   151    0.143055D-01    0.997725D+00    0.438061D+01    0.656700D-02
   0   152    0.146908D-01    0.996255D+00   -0.663195D+01    0.109782D-01
   0   153    0.147608D-01    0.996994D+00   -0.844467D+01    0.894928D-02
   0   154    0.144693D-01    0.997475D+00    0.590370D+01    0.750190D-02
   0   155    0.147936D-01    0.998305D+00   -0.689517D+01    0.530545D-02
   0   156    0.150792D-01    0.997871D+00    0.113076D+01    0.632702D-02
   0   157    0.149124D-01    0.997629D+00    0.849198D+01    0.667537D-02
   0   158    0.148328D-01    0.997133D+00   -0.873191D+01    0.779985D-02
   0   159    0.146789D-01    0.997558D+00   -0.769127D+01    0.710829D-02
   0   160    0.147913D-01    0.998084D+00   -0.456973D+00    0.494720D-02
   0   161    0.144660D-01    0.998033D+00   -0.637066D+01    0.580681D-02
   0   162    0.142175D-01    0.997710D+00   -0.744257D+01    0.666866D-02
   0   163    0.142504D-01    0.997761D+00    0.668891D+01    0.612294D-02
   0   164    0.142181D-01    0.997696D+00   -0.518635D+01    0.613095D-02
   0   165    0.143426D-01    0.997582D+00   -0.709660D+01    0.759427D-02
   0   166    0.142006D-01    0.998109D+00   -0.461892D+01    0.464645D-02
   0   167    0.140426D-01    0.998378D+00   -0.681596D+01    0.452270D-02
   0   168    0.141788D-01    0.998231D+00    0.478491D+01    0.568135D-02
   0   169    0.143726D-01    0.999184D+00    0.680558D+01    0.253413D-02
   0   170    0.145338D-01    0.100055D+01   -0.425228D+01   -0.153776D-02
   0   171    0.143676D-01    0.100022D+01   -0.759461D-01   -0.142403D-02
   0   172    0.143873D-01    0.100017D+01   -0.730516D+01   -0.353020D-03
   0   173    0.140348D-01    0.999059D+00    0.724079D+01    0.219498D-02
   0   174    0.142430D-01    0.998464D+00   -0.598431D-01    0.427598D-02
   0   175    0.141739D-01    0.998796D+00   -0.164031D+01    0.360187D-02
   0   176    0.144635D-01    0.999252D+00   -0.189087D+01    0.255457D-02
   0   177    0.142688D-01    0.998557D+00   -0.664477D+01    0.360636D-02
   0   178    0.139952D-01    0.998300D+00   -0.490307D+01    0.558827D-02
   0   179    0.139714D-01    0.998575D+00    0.976068D+00    0.462261D-02
   0   180    0.143164D-01    0.997894D+00    0.150415D+01    0.539754D-02
   0   181    0.142806D-01    0.996613D+00   -0.340721D+01    0.977062D-02
   0   182    0.140209D-01    0.997032D+00    0.120446D+01    0.803460D-02
   0   183    0.141090D-01    0.997778D+00   -0.760048D-01    0.625529D-02
   0   184    0.144713D-01    0.997964D+00   -0.475642D+00    0.516723D-02
   0   185    0.145007D-01    0.997790D+00    0.657766D+01    0.579792D-02
   0   186    0.149118D-01    0.997726D+00   -0.497189D+01    0.703565D-02
   0   187    0.148040D-01    0.997468D+00   -0.789912D+01    0.721007D-02
   0   188    0.143952D-01    0.998097D+00   -0.392535D+01    0.537547D-02
   0   189    0.141766D-01    0.996903D+00    0.718706D+01    0.894646D-02
   0   190    0.143614D-01    0.996689D+00    0.710879D+01    0.906940D-02
   0   191    0.144499D-01    0.997167D+00    0.157816D+01    0.878166D-02
   0   192    0.144219D-01    0.997078D+00   -0.413945D+01    0.808577D-02
   0   193    0.148510D-01    0.996261D+00    0.175888D+01    0.105404D-01
   0   194    0.145058D-01    0.998505D+00   -0.462215D+01    0.437625D-02
   0   195    0.145210D-01    0.999238D+00    0.651813D+00    0.292591D-02
   0   196    0.140359D-01    0.998589D+00   -0.151461D+01    0.431268D-02
   0   197    0.141543D-01    0.998714D+00    0.812123D+01    0.347261D-02
   0   198    0.144027D-01    0.997588D+00    0.756824D+01    0.685299D-02
   0   199    0.143605D-01    0.996983D+00   -0.698931D+01    0.808989D-02
   0   200    0.147931D-01    0.996551D+00    0.314455D+01    0.103411D-01
   0   201    0.144121D-01    0.997026D+00   -0.108805D+01    0.788227D-02
   0   202    0.147014D-01    0.995904D+00   -0.656558D+01    0.113588D-01
   0   203    0.146244D-01    0.994617D+00    0.826230D+01    0.155140D-01
   0   204    0.158240D-01    0.991512D+00    0.193431D+01    0.243088D-01
   0   205    0.162803D-01    0.988685D+00   -0.363010D+01    0.324185D-01
   0   206    0.176936D-01    0.984135D+00   -0.175200D+01    0.445447D-01
   0   207    0.195817D-01    0.976151D+00    0.276811D+01    0.668868D-01
   0   208    0.239596D-01    0.963822D+00    0.581906D+01    0.993869D-01
   0   209    0.274817D-01    0.944060D+00   -0.193746D+01    0.145987D+00
   0   210    0.290987D-01    0.913270D+00    0.294303D+01    0.205412D+00
   0   211    0.264925D-01    0.863116D+00    0.143146D+01    0.269309D+00
   0   212    0.190400D-01    0.788556D+00    0.305266D+01    0.323586D+00
   0   213    0.107070D-01    0.693824D+00    0.910983D+01    0.359715D+00
   0   214    0.504007D-02    0.584888D+00    0.260316D+01    0.382373D+00
   0   215    0.213834D-02    0.475085D+00    0.148980D+01    0.396123D+00
   0   216    0.844602D-03    0.373727D+00    0.911246D+00    0.404673D+00
   0   217    0.300441D-03    0.286035D+00    0.191120D+00    0.410156D+00
   0   218    0.103631D-03    0.213803D+00    0.442696D-01    0.413771D+00
   0   219    0.355902D-04    0.156570D+00    0.123768D-01    0.416202D+00
   0   220    0.113515D-04    0.112612D+00    0.182172D-02    0.417859D+00
   0   221    0.364237D-05    0.797283D-01    0.296193D-02    0.418997D+00
   0   222    0.113219D-05    0.556712D-01    0.118381D-03    0.419779D+00
   0   223    0.337339D-06    0.384051D-01    0.105185D-03    0.420317D+00
   0   224    0.984410D-07    0.262152D-01    0.653403D-04    0.420685D+00
   0   225    0.295976D-07    0.177299D-01    0.267394D-04    0.420936D+00
   0   226    0.857806D-08    0.118950D-01    0.101634D-04    0.421106D+00
   0   227    0.243677D-08    0.792454D-02    0.296844D-05    0.421221D+00
   0   228    0.712321D-09    0.524721D-02    0.213030D-06    0.421298D+00
   0   229    0.213309D-09    0.345595D-02    0.117100D-06    0.421349D+00
   0   230    0.670873D-10    0.226562D-02    0.340842D-07    0.421383D+00
   0   231    0.208784D-10    0.147927D-02    0.163000D-07    0.421405D+00
   0   232    0.643132D-11    0.962426D-03    0.258530D-08    0.421420D+00
   0   233    0.183062D-11    0.624234D-03    0.121306D-08    0.421429D+00
   0   234    0.552697D-12    0.403790D-03    0.547332D-09    0.421436D+00
   0   235    0.164206D-12    0.260579D-03    0.261078D-10    0.421440D+00
   0   236    0.463654D-13    0.167814D-03    0.123651D-10    0.421442D+00
   0   237    0.132289D-13    0.107878D-03    0.809180D-11    0.421444D+00
   0   238    0.368834D-14    0.692391D-04    0.316634D-11    0.421445D+00
   0   239    0.103802D-14    0.443778D-04    0.196086D-12    0.421446D+00
   0   240    0.281671D-15    0.284085D-04    0.266177D-12    0.421446D+00
   0   241    0.771591D-16    0.181662D-04    0.532929D-13    0.421447D+00
   0   242    0.207369D-16    0.116056D-04    0.146817D-13    0.421447D+00
   0   243    0.552706D-17    0.740801D-05    0.442778D-14    0.421447D+00
   0   244    0.146921D-17    0.472510D-05    0.704720D-15    0.421447D+00
   0   245    0.394669D-18    0.301183D-05    0.324016D-15    0.421447D+00
   0   246    0.100746D-18    0.191863D-05    0.301715D-16    0.421447D+00
   0   247    0.261195D-19    0.122157D-05    0.120870D-16    0.421447D+00
   0   248    0.659343D-20    0.777388D-06    0.758624D-17    0.421447D+00
   0   249    0.173889D-20    0.494502D-06    0.117702D-17    0.421447D+00
   0   250    0.456645D-21    0.314432D-06    0.369434D-18    0.421447D+00
   0   251    0.110927D-21    0.199863D-06    0.872559D-19    0.421447D+00
   0   252    0.292575D-22    0.126997D-06    0.125705D-19    0.421447D+00
   0   253    0.740660D-23    0.806731D-07    0.241593D-20    0.421447D+00
   0   254    0.186093D-23    0.512324D-07    0.135176D-20    0.421447D+00
   0   255    0.464684D-24    0.325277D-07    0.647338D-21    0.421447D+00
   0   256    0.117470D-24    0.206472D-07    0.464340D-22    0.421447D+00
   0   257    0.297125D-25    0.131032D-07    0.306897D-22    0.421447D+00
   0   258    0.730277D-26    0.831404D-08    0.729125D-23    0.421447D+00
   0   259    0.178031D-26    0.527433D-08    0.174084D-23    0.421447D+00
   0   260    0.434914D-27    0.334542D-08    0.485111D-24    0.421447D+00
   0   261    0.109730D-27    0.212162D-08    0.355415D-25    0.421447D+00
   0   262    0.267609D-28    0.134532D-08    0.368932D-25    0.421447D+00
   0   263    0.661718D-29    0.852949D-09    0.675809D-26    0.421447D+00
   0   264    0.165802D-29    0.540717D-09    0.196489D-26    0.421447D+00
   0   265    0.405373D-30    0.342743D-09    0.473037D-27    0.421447D+00
   0   266    0.966186D-31    0.217231D-09    0.123958D-27    0.421447D+00
   0   267    0.237927D-31    0.137668D-09    0.336746D-28    0.421447D+00
   0   268    0.579931D-32    0.872381D-10    0.734709D-29    0.421447D+00
   0   269    0.137249D-32    0.552769D-10    0.138280D-29    0.421447D+00
   0   270    0.331717D-33    0.350226D-10    0.316895D-30    0.421447D+00
   0   271    0.814901D-34    0.221882D-10    0.837560D-31    0.421447D+00
   0   272    0.197917D-34    0.140562D-10    0.223812D-31    0.421447D+00
   0   273    0.485019D-35    0.890406D-11    0.556967D-32    0.421447D+00
   0   274    0.118941D-35    0.564006D-11    0.585213D-33    0.421447D+00
   0   275    0.290931D-36    0.357237D-11    0.348200D-33    0.421447D+00
   0   276    0.682884D-37    0.226261D-11    0.830255D-34    0.421447D+00
   0   277    0.166649D-37    0.143299D-11    0.154577D-34    0.421447D+00
   0   278    0.401598D-38    0.907524D-12    0.188600D-35    0.421447D+00
   0   279    0.953504D-39    0.574721D-12    0.712736D-36    0.421447D+00
   0   280    0.227593D-39    0.363949D-12    0.782867D-37    0.421447D+00
   0   281    0.554858D-40    0.230468D-12    0.180617D-37    0.421447D+00
   0   282    0.132115D-40    0.145937D-12    0.718032D-38    0.421447D+00
   0   283    0.321401D-41    0.924083D-13    0.157388D-38    0.421447D+00
   0   284    0.793063D-42    0.585118D-13    0.269600D-39    0.421447D+00
   0   285    0.185029D-42    0.370481D-13    0.176314D-39    0.421447D+00
   0   286    0.450944D-43    0.234573D-13    0.253263D-40    0.421447D+00
   0   287    0.111551D-43    0.148519D-13    0.102281D-40    0.421447D+00
   0   288    0.255327D-44    0.940320D-14    0.969791D-42    0.421447D+00
   0   289    0.634133D-45    0.595336D-14    0.650904D-42    0.421447D+00
   0   290    0.149261D-45    0.376914D-14    0.121503D-42    0.421447D+00
   0   291    0.354243D-46    0.238624D-14    0.248333D-43    0.421447D+00
   0   292    0.844297D-47    0.151071D-14    0.513764D-44    0.421447D+00
   0   293    0.206040D-47    0.956406D-15    0.113194D-44    0.421447D+00
   0   294    0.482435D-48    0.605477D-15    0.600479D-45    0.421447D+00
   0   295    0.113772D-48    0.383309D-15    0.124908D-45    0.421447D+00
   0   296    0.269480D-49    0.242658D-15    0.382503D-46    0.421447D+00
   0   297    0.662737D-50    0.153616D-15    0.766969D-47    0.421447D+00
   0   298    0.157657D-50    0.972470D-16    0.170187D-47    0.421447D+00
   0   299    0.378243D-51    0.615618D-16    0.170322D-48    0.421447D+00
   0   300    0.886540D-52    0.389712D-16    0.677908D-49    0.421447D+00
   0   301    0.209711D-52    0.246702D-16    0.191969D-49    0.421447D+00
   0   302    0.493224D-53    0.156171D-16    0.261686D-50    0.421447D+00
   0   303    0.119620D-53    0.988609D-17    0.862773D-51    0.421447D+00
   0   304    0.279156D-54    0.625816D-17    0.299173D-51    0.421447D+00
   0   305    0.679876D-55    0.396156D-17    0.267959D-52    0.421447D+00
   0   306    0.165229D-55    0.250775D-17    0.209036D-52    0.421447D+00
   0   307    0.394615D-56    0.158745D-17    0.404042D-53    0.421447D+00
   0   308    0.910643D-57    0.100488D-17    0.749606D-54    0.421447D+00
   0   309    0.213267D-57    0.636101D-18    0.130557D-54    0.421447D+00
   0   310    0.514292D-58    0.402657D-18    0.153984D-55    0.421447D+00
   0   311    0.122488D-58    0.254884D-18    0.750642D-56    0.421447D+00
   0   312    0.287077D-59    0.161342D-18    0.160124D-56    0.421447D+00
   0   313    0.698363D-60    0.102129D-18    0.759173D-57    0.421447D+00
   0   314    0.161346D-60    0.646473D-19    0.753832D-58    0.421447D+00
   0   315    0.375066D-61    0.409211D-19    0.210423D-58    0.421447D+00
   0   316    0.897872D-62    0.259025D-19    0.926137D-59    0.421447D+00
   0   317    0.217731D-62    0.163958D-19    0.224431D-59    0.421447D+00
   0   318    0.501877D-63    0.103782D-19    0.466029D-60    0.421447D+00
   0   319    0.120036D-63    0.656906D-20    0.140633D-60    0.421447D+00
   0   320    0.275353D-64    0.415798D-20    0.405735D-61    0.421447D+00
   0   321    0.658128D-65    0.263183D-20    0.473219D-62    0.421447D+00
   0   322    0.158235D-65    0.166582D-20    0.207992D-62    0.421447D+00
   0   323    0.386789D-66    0.105437D-20    0.141486D-63    0.421447D+00
   0   324    0.914709D-67    0.667350D-21    0.490135D-64    0.421447D+00
   0   325    0.215996D-67    0.422385D-21    0.291296D-64    0.421447D+00
   0   326    0.515270D-68    0.267336D-21    0.161188D-65    0.421447D+00
   0   327    0.121413D-68    0.169200D-21    0.122908D-65    0.421447D+00
   0   328    0.285662D-69    0.107087D-21    0.106259D-66    0.421447D+00
   0   329    0.661929D-70    0.677744D-22    0.705607D-67    0.421447D+00
   0   330    0.159528D-70    0.428932D-22    0.155007D-67    0.421447D+00
   0   331    0.373580D-71    0.271459D-22    0.199840D-68    0.421447D+00
   0   332    0.882211D-72    0.171796D-22    0.682542D-69    0.421447D+00
   0   333    0.206012D-72    0.108721D-22    0.140258D-69    0.421447D+00
   0   334    0.488400D-73    0.688026D-23    0.230198D-70    0.421447D+00
   0   335    0.115847D-73    0.435401D-23    0.622819D-71    0.421447D+00
   0   336    0.276286D-74    0.275528D-23    0.252679D-71    0.421447D+00
   0   337    0.658418D-75    0.174355D-23    0.204271D-72    0.421447D+00
   0   338    0.151694D-75    0.110330D-23    0.161454D-72    0.421447D+00
   0   339    0.357394D-76    0.698141D-24    0.528910D-73    0.421447D+00
   0   340    0.815354D-77    0.441758D-24    0.750650D-74    0.421447D+00
   0   341    0.194032D-77    0.279522D-24    0.663252D-75    0.421447D+00
   0   342    0.463135D-78    0.176864D-24    0.283961D-75    0.421447D+00
   0   343    0.111341D-78    0.111906D-24    0.128460D-75    0.421447D+00
   0   344    0.258964D-79    0.708037D-25    0.257047D-76    0.421447D+00
   0   345    0.624444D-80    0.447971D-25    0.876064D-77    0.421447D+00
   0   346    0.146137D-80    0.283422D-25    0.547869D-78    0.421447D+00
   0   347    0.346508D-81    0.179311D-25    0.423047D-78    0.421447D+00
   0   348    0.826667D-82    0.113441D-25    0.428777D-79    0.421447D+00
   0   349    0.195280D-82    0.717664D-26    0.124216D-79    0.421447D+00
   0   350    0.462434D-83    0.454006D-26    0.312797D-80    0.421447D+00
   0   351    0.106701D-83    0.287205D-26    0.647524D-81    0.421447D+00
   0   352    0.245746D-84    0.181681D-26    0.344789D-81    0.421447D+00
   0   353    0.582476D-85    0.114925D-26    0.805131D-82    0.421447D+00
   0   354    0.139341D-85    0.726955D-27    0.519163D-83    0.421447D+00
   0   355    0.321875D-86    0.459819D-27    0.432946D-83    0.421447D+00
   0   356    0.766641D-87    0.290840D-27    0.679177D-84    0.421447D+00
   0   357    0.183867D-87    0.183952D-27    0.137227D-84    0.421447D+00
   0   358    0.425939D-88    0.116344D-27    0.407658D-85    0.421447D+00
   0   359    0.100574D-88    0.735807D-28    0.929622D-86    0.421447D+00
   0   360    0.228276D-89    0.465338D-28    0.305060D-86    0.421447D+00
   0   361    0.545262D-90    0.294277D-28    0.724662D-87    0.421447D+00
   0   362    0.130871D-90    0.186091D-28    0.135535D-87    0.421447D+00
   0   363    0.306941D-91    0.117673D-28    0.364123D-88    0.421447D+00
   0   364    0.726409D-92    0.744055D-29    0.654016D-89    0.421447D+00
   0   365    0.167707D-92    0.470449D-29    0.112796D-89    0.421447D+00
   0   366    0.407720D-93    0.297439D-29    0.488038D-90    0.421447D+00
   0   367    0.956710D-94    0.188043D-29    0.972849D-91    0.421447D+00
   0   368    0.232006D-94    0.118875D-29    0.238249D-91    0.421447D+00
   0   369    0.544553D-95    0.751445D-30    0.573483D-92    0.421447D+00
   0   370    0.131394D-95    0.474979D-30    0.142578D-92    0.421447D+00
   0   371    0.305267D-96    0.300206D-30    0.327840D-93    0.421447D+00
   0   372    0.737144D-97    0.189728D-30    0.811067D-94    0.421447D+00
   0   373    0.174734D-97    0.119896D-30    0.103413D-94    0.421447D+00
   0   374    0.394682D-98    0.757607D-31    0.172157D-95    0.421447D+00
   0   375    0.903700D-99    0.478676D-31    0.883270D-96    0.421447D+00
   0   376    0.206318D-99    0.302410D-31    0.151114D-96    0.421447D+00
   0   377    0.496664-100    0.191031D-31    0.309848D-97    0.421447D+00
   0   378    0.115291-100    0.120660D-31    0.133416D-97    0.421447D+00
   0   379    0.277469-101    0.762033D-32    0.318197D-98    0.421447D+00
   0   380    0.665733-102    0.481203D-32    0.537625D-99    0.421447D+00
   0   381    0.156726-102    0.303826D-32    0.495282-100    0.421447D+00
   0   382    0.363441-103    0.191805D-32    0.352309-100    0.421447D+00
   0   383    0.859995-104    0.121069D-32    0.577894-101    0.421447D+00
   0   384    0.193506-104    0.764074D-33    0.119175-101    0.421447D+00
   0   385    0.461567-105    0.482133D-33    0.664244-102    0.421447D+00
   0   386    0.110525-105    0.304174D-33    0.138795-102    0.421447D+00
   0   387    0.261635-106    0.191866D-33    0.176656-103    0.421447D+00
   0   388    0.628467-107    0.121000D-33    0.330661-104    0.421447D+00
   0   389    0.149317-107    0.762926D-34    0.808785-105    0.421447D+00
   0   390    0.354817-108    0.480919D-34    0.375617-105    0.421447D+00
   0   391    0.829231-109    0.303059D-34    0.730422-106    0.421447D+00
   0   392    0.192170-109    0.190892D-34    0.134288-106    0.421447D+00
   0   393    0.445003-110    0.120145D-34    0.176949-107    0.421447D+00
   0   394    0.109531-110    0.754926D-35    0.746314-108    0.421447D+00
   0   395    0.254122-111    0.472547D-35    0.319238-108    0.421447D+00
   0   396    0.597433-112    0.293021D-35    0.350247-109    0.421447D+00
   0   397    0.141404-112    0.177340D-35    0.972104-110    0.421447D+00