variables =  "IG"  "JG"  "PHI"  "Temp."  "Latent_heat"  "mm"
ZONE  I=  401  J=  101
   0     0    0.100000D+01    0.873955D+00    0.000000D+00    0.257866D+00
   0     1    0.100000D+01    0.873955D+00    0.000000D+00    0.257866D+00
   0     2    0.100000D+01    0.874280D+00    0.000000D+00    0.257506D+00
   0     3    0.100000D+01    0.874929D+00    0.000000D+00    0.256784D+00
   0     4    0.100000D+01    0.875898D+00    0.000000D+00    0.255696D+00
   0     5    0.100000D+01    0.877185D+00    0.000000D+00    0.254235D+00
   0     6    0.100000D+01    0.878785D+00    0.000000D+00    0.252394D+00
   0     7    0.100000D+01    0.880691D+00    0.000000D+00    0.250161D+00
   0     8    0.100000D+01    0.882897D+00    0.000000D+00    0.247525D+00
   0     9    0.100000D+01    0.885394D+00    0.000000D+00    0.244471D+00
   0    10    0.100000D+01    0.888174D+00    0.000000D+00    0.240981D+00
   0    11    0.100000D+01    0.891226D+00    0.000000D+00    0.237036D+00
   0    12    0.100000D+01    0.894541D+00    0.000000D+00    0.232614D+00
   0    13    0.100000D+01    0.898106D+00    0.000000D+00    0.227691D+00
   0    14    0.100000D+01    0.901911D+00    0.000000D+00    0.222240D+00
   0    15    0.100000D+01    0.905943D+00    0.000000D+00    0.216233D+00
   0    16    0.100000D+01    0.910190D+00    0.000000D+00    0.209639D+00
   0    17    0.100000D+01    0.914639D+00    0.000000D+00    0.202424D+00
   0    18    0.100000D+01    0.919279D+00    0.000000D+00    0.194556D+00
   0    19    0.100000D+01    0.924098D+00    0.119904D-09    0.185998D+00
   0    20    0.100000D+01    0.929084D+00    0.532907D-10    0.176715D+00
   0    21    0.100000D+01    0.934228D+00    0.531575D-08    0.166670D+00
   0    22    0.100000D+01    0.939521D+00   -0.224620D-07    0.155827D+00
   0    23    0.100000D+01    0.944958D+00    0.578204D-08    0.144147D+00
   0    24    0.100000D+01    0.950538D+00   -0.263221D-05    0.131589D+00
   0    25    0.100000D+01    0.956269D+00   -0.107184D-05    0.118102D+00
   0    26    0.100000D+01    0.962166D+00    0.127841D-03    0.103616D+00
   0    27    0.999998D+00    0.968266D+00   -0.246849D-03    0.880306D-01
   0    28    0.999988D+00    0.974627D+00    0.279597D-02    0.711851D-01
   0    29    0.999918D+00    0.981347D+00    0.364903D-01    0.528276D-01
   0    30    0.999477D+00    0.988593D+00   -0.201915D+00    0.325373D-01
   0    31    0.996617D+00    0.996659D+00    0.154585D+01    0.957925D-02
   0    32    0.978971D+00    0.100582D+01    0.732808D+01   -0.164783D-01
   0    33    0.875439D+00    0.101758D+01    0.578387D+02   -0.497734D-01
   0    34    0.440618D+00    0.102837D+01   -0.472555D+02   -0.784119D-01
   0    35    0.105651D+00    0.102707D+01   -0.445245D+02   -0.765863D-01
   0    36    0.284993D-01    0.102176D+01    0.673321D+01   -0.616694D-01
   0    37    0.117943D-01    0.101718D+01    0.642947D+01   -0.481426D-01
   0    38    0.863719D-02    0.101325D+01    0.524084D+00   -0.376850D-01
   0    39    0.848759D-02    0.101149D+01   -0.274335D+01   -0.324512D-01
   0    40    0.932352D-02    0.100954D+01   -0.480336D+01   -0.272781D-01
   0    41    0.100011D-01    0.100800D+01   -0.484808D+01   -0.227926D-01
   0    42    0.105342D-01    0.100631D+01    0.486529D+01   -0.184104D-01
   0    43    0.109482D-01    0.100594D+01   -0.462040D+01   -0.175733D-01
   0    44    0.109927D-01    0.100534D+01    0.421842D+01   -0.151161D-01
   0    45    0.109796D-01    0.100491D+01    0.477933D+01   -0.139490D-01
   0    46    0.112339D-01    0.100446D+01    0.440271D+01   -0.122719D-01
   0    47    0.114557D-01    0.100388D+01   -0.431639D+01   -0.110145D-01
   0    48    0.117049D-01    0.100422D+01    0.362225D+01   -0.115862D-01
   0    49    0.117751D-01    0.100361D+01    0.394652D+01   -0.102232D-01
   0    50    0.119347D-01    0.100352D+01   -0.492375D+01   -0.104695D-01
   0    51    0.121572D-01    0.100270D+01   -0.637293D+01   -0.835139D-02
   0    52    0.121374D-01    0.100236D+01    0.680846D+01   -0.636434D-02
   0    53    0.125039D-01    0.100313D+01   -0.525955D+01   -0.893920D-02
   0    54    0.127634D-01    0.100345D+01   -0.274642D+01   -0.947390D-02
   0    55    0.128655D-01    0.100211D+01    0.745636D-01   -0.551517D-02
   0    56    0.130522D-01    0.100059D+01    0.725944D+00   -0.120365D-02
   0    57    0.129359D-01    0.100058D+01    0.150072D+01   -0.124518D-02
   0    58    0.135027D-01    0.100072D+01   -0.597202D+01   -0.228723D-02
   0    59    0.134987D-01    0.100063D+01   -0.338525D+01   -0.260369D-02
   0    60    0.139158D-01    0.999880D+00   -0.844272D+01    0.209610D-03
   0    61    0.136064D-01    0.999513D+00   -0.586392D+01    0.165034D-02
   0    62    0.138568D-01    0.999838D+00    0.692217D+01    0.397629D-03
   0    63    0.136363D-01    0.999021D+00   -0.464771D+01    0.352190D-02
   0    64    0.137603D-01    0.996919D+00   -0.515722D+01    0.928514D-02
   0    65    0.141945D-01    0.998383D+00   -0.627425D+01    0.485454D-02
   0    66    0.143540D-01    0.998876D+00    0.467068D+01    0.312320D-02
   0    67    0.141691D-01    0.999474D+00    0.670679D+01    0.130477D-02
   0    68    0.146848D-01    0.997643D+00    0.572663D+01    0.647338D-02
   0    69    0.146791D-01    0.997026D+00   -0.484090D+01    0.826035D-02
   0    70    0.146430D-01    0.997790D+00    0.539273D+01    0.626539D-02
   0    71    0.146405D-01    0.996919D+00   -0.917292D+01    0.908733D-02
   0    72    0.147377D-01    0.997702D+00    0.592611D+01    0.628917D-02
   0    73    0.149488D-01    0.997893D+00    0.239572D+00    0.570198D-02
   0    74    0.149545D-01    0.998094D+00   -0.738022D+01    0.480042D-02
   0    75    0.142046D-01    0.997874D+00    0.299898D+01    0.610290D-02
   0    76    0.142714D-01    0.998370D+00    0.616964D+01    0.468419D-02
   0    77    0.144460D-01    0.998789D+00   -0.592942D+01    0.283126D-02
   0    78    0.145296D-01    0.998518D+00    0.758153D+01    0.435245D-02
   0    79    0.141889D-01    0.998419D+00    0.323608D+01    0.438455D-02
   0    80    0.146551D-01    0.997963D+00   -0.601802D+01    0.535396D-02
   0    81    0.145204D-01    0.998073D+00   -0.624156D+01    0.610995D-02
   0    82    0.143525D-01    0.996748D+00    0.507565D+01    0.953262D-02
   0    83    0.144731D-01    0.998157D+00   -0.599168D+01    0.561882D-02
   0    84    0.142634D-01    0.998084D+00   -0.748636D+01    0.593529D-02
   0    85    0.143677D-01    0.997382D+00   -0.326795D+01    0.770219D-02
   0    86    0.147449D-01    0.997137D+00   -0.125922D+01    0.795929D-02
   0    87    0.147335D-01    0.997689D+00   -0.699602D+01    0.585771D-02
   0    88    0.143855D-01    0.998332D+00   -0.672690D+01    0.451150D-02
   0    89    0.147813D-01    0.997628D+00    0.464397D+01    0.631667D-02
   0    90    0.146708D-01    0.998754D+00   -0.452349D+01    0.416812D-02
   0    91    0.146575D-01    0.997820D+00    0.256093D+01    0.652866D-02
   0    92    0.147614D-01    0.998713D+00   -0.241827D+00    0.326476D-02
   0    93    0.146011D-01    0.998500D+00    0.516268D+01    0.440692D-02
   0    94    0.146211D-01    0.999076D+00   -0.717011D+01    0.330310D-02
   0    95    0.139673D-01    0.998006D+00    0.534632D+01    0.508373D-02
   0    96    0.144989D-01    0.996954D+00    0.328964D+01    0.827792D-02
   0    97    0.146154D-01    0.997207D+00    0.955957D+01    0.727317D-02
   0    98    0.144111D-01    0.997360D+00   -0.461169D+01    0.726321D-02
   0    99    0.143707D-01    0.997079D+00    0.782537D+01    0.769927D-02
   0   100    0.144959D-01    0.997203D+00   -0.208040D+01    0.851906D-02
   0   101    0.145669D-01    0.996834D+00   -0.730485D+01    0.849006D-02
   0   102    0.144223D-01    0.996656D+00    0.616262D+01    0.989304D-02
   0   103    0.142450D-01    0.996109D+00   -0.532752D+01    0.115021D-01
   0   104    0.144161D-01    0.995311D+00    0.708527D+01    0.138191D-01
   0   105    0.147424D-01    0.995435D+00    0.251804D+01    0.123557D-01
   0   106    0.148084D-01    0.996340D+00   -0.547716D+01    0.104869D-01
   0   107    0.149557D-01    0.996898D+00   -0.467732D+01    0.904565D-02
   0   108    0.143701D-01    0.996754D+00   -0.573101D+01    0.899367D-02
   0   109    0.147912D-01    0.996790D+00    0.454118D+01    0.943750D-02
   0   110    0.151958D-01    0.997410D+00    0.395106D+01    0.682695D-02
   0   111    0.148603D-01    0.996197D+00    0.506474D+01    0.101481D-01
   0   112    0.147829D-01    0.996183D+00   -0.519438D+01    0.107278D-01
   0   113    0.149429D-01    0.996709D+00    0.383960D+00    0.941897D-02
   0   114    0.151003D-01    0.997079D+00    0.643973D-01    0.826163D-02
   0   115    0.149840D-01    0.997407D+00    0.767093D+01    0.708669D-02
   0   116    0.146992D-01    0.998249D+00    0.497435D+01    0.446589D-02
   0   117    0.143578D-01    0.998023D+00    0.445881D+01    0.600091D-02
   0   118    0.149494D-01    0.998131D+00   -0.243035D+01    0.567852D-02
   0   119    0.148451D-01    0.997717D+00   -0.573707D+01    0.667657D-02
   0   120    0.144845D-01    0.997679D+00    0.563122D+01    0.667906D-02
   0   121    0.147256D-01    0.996651D+00    0.746220D+01    0.956104D-02
   0   122    0.148435D-01    0.997651D+00   -0.171402D+01    0.646494D-02
   0   123    0.144219D-01    0.997515D+00    0.922544D+01    0.778090D-02
   0   124    0.143168D-01    0.996631D+00    0.267793D+01    0.906737D-02
   0   125    0.146185D-01    0.997583D+00   -0.177218D+01    0.717967D-02
   0   126    0.149847D-01    0.997164D+00   -0.169963D+01    0.856977D-02
   0   127    0.145068D-01    0.996377D+00   -0.844269D+00    0.108301D-01
   0   128    0.141438D-01    0.998077D+00   -0.415967D+01    0.541553D-02
   0   129    0.142233D-01    0.998083D+00    0.829742D+01    0.633576D-02
   0   130    0.141735D-01    0.998113D+00   -0.244093D+01    0.544217D-02
   0   131    0.145464D-01    0.999734D+00    0.369551D+01    0.114835D-02
   0   132    0.143508D-01    0.998766D+00    0.122781D+01    0.279416D-02
   0   133    0.139851D-01    0.998711D+00    0.324487D+01    0.448006D-02
   0   134    0.138196D-01    0.998304D+00   -0.633033D+00    0.461294D-02
   0   135    0.144320D-01    0.997197D+00   -0.480294D+01    0.756927D-02
   0   136    0.144221D-01    0.997988D+00    0.512254D+01    0.536202D-02
   0   137    0.146931D-01    0.997903D+00   -0.825142D+01    0.582997D-02
   0   138    0.145224D-01    0.998404D+00    0.668327D+01    0.453618D-02
   0   139    0.142347D-01    0.997733D+00    0.479740D+01    0.609643D-02
   0   140    0.139561D-01    0.998165D+00   -0.253461D+01    0.462056D-02
   0   141    0.138725D-01    0.997784D+00    0.406405D+01    0.666836D-02
   0   142    0.141004D-01    0.998148D+00   -0.656756D+01    0.563064D-02
   0   143    0.143484D-01    0.998267D+00    0.344184D+01    0.463168D-02
   0   144    0.143805D-01    0.998432D+00    0.679105D+01    0.479620D-02
   0   145    0.145693D-01    0.997590D+00   -0.588483D+01    0.636484D-02
   0   146    0.144792D-01    0.998125D+00   -0.659715D+01    0.495304D-02
   0   147    0.145143D-01    0.997757D+00    0.730355D+01    0.677304D-02
   0   148    0.146668D-01    0.997997D+00    0.509189D+01    0.504329D-02
   0   149    0.144804D-01    0.997849D+00   -0.701543D+01    0.574017D-02
   0   150    0.144569D-01    0.998142D+00    0.114638D+01    0.495325D-02
   0   151    0.142788D-01    0.997491D+00   -0.359329D+01    0.709021D-02
   0   152    0.147989D-01    0.997011D+00   -0.902601D+01    0.836227D-02
   0   153    0.144744D-01    0.997343D+00    0.296518D+01    0.813590D-02
   0   154    0.145218D-01    0.997050D+00    0.322132D+01    0.819754D-02
   0   155    0.146950D-01    0.996453D+00   -0.574464D+01    0.109208D-01
   0   156    0.147837D-01    0.996020D+00   -0.469086D+01    0.115247D-01
   0   157    0.146488D-01    0.996451D+00   -0.352454D+01    0.104095D-01
   0   158    0.149992D-01    0.996932D+00   -0.869052D+01    0.946316D-02
   0   159    0.152410D-01    0.996842D+00    0.726646D+00    0.873188D-02
   0   160    0.152944D-01    0.996850D+00   -0.851163D+01    0.845103D-02
   0   161    0.148770D-01    0.998467D+00   -0.625948D+01    0.498207D-02
   0   162    0.153925D-01    0.997278D+00    0.648864D+01    0.805504D-02
   0   163    0.148178D-01    0.996493D+00    0.592663D+01    0.103529D-01
   0   164    0.148832D-01    0.996777D+00   -0.606574D+01    0.892239D-02
   0   165    0.151887D-01    0.997044D+00    0.503299D+01    0.835726D-02
   0   166    0.157534D-01    0.995458D+00    0.171427D+01    0.133570D-01
   0   167    0.158734D-01    0.995242D+00    0.905962D+01    0.140770D-01
   0   168    0.156109D-01    0.995388D+00    0.552804D+01    0.131984D-01
   0   169    0.157927D-01    0.993149D+00   -0.245445D+01    0.201956D-01
   0   170    0.169278D-01    0.988749D+00    0.226711D+01    0.321437D-01
   0   171    0.180873D-01    0.983441D+00   -0.889401D+01    0.468616D-01
   0   172    0.202960D-01    0.975805D+00   -0.222048D+01    0.686941D-01
   0   173    0.235932D-01    0.960525D+00    0.169018D+01    0.107668D+00
   0   174    0.274796D-01    0.936758D+00   -0.784472D+01    0.161726D+00
   0   175    0.286666D-01    0.901492D+00    0.167959D+02    0.222858D+00
   0   176    0.245788D-01    0.846852D+00    0.282874D+01    0.284701D+00
   0   177    0.172270D-01    0.767118D+00    0.128835D+02    0.334020D+00
   0   178    0.919396D-02    0.667511D+00   -0.111932D+00    0.366449D+00
   0   179    0.424291D-02    0.557777D+00    0.316889D+00    0.386370D+00
   0   180    0.174398D-02    0.449377D+00    0.106481D+01    0.398581D+00
   0   181    0.664511D-03    0.351009D+00    0.539284D+00    0.406233D+00
   0   182    0.233030D-03    0.266859D+00    0.294159D+00    0.411184D+00
   0   183    0.822372D-04    0.198260D+00    0.796313D-01    0.414465D+00
   0   184    0.270533D-04    0.144375D+00    0.121304D-01    0.416679D+00
   0   185    0.875580D-05    0.103314D+00    0.770892D-02    0.418189D+00
   0   186    0.274238D-05    0.728096D-01    0.180070D-02    0.419226D+00
   0   187    0.834263D-06    0.506310D-01    0.865210D-03    0.419938D+00
   0   188    0.253686D-06    0.347997D-01    0.667163D-04    0.420427D+00
   0   189    0.778128D-07    0.236763D-01    0.521232D-04    0.420761D+00
   0   190    0.225453D-07    0.159662D-01    0.885181D-05    0.420988D+00
   0   191    0.662009D-08    0.106840D-01    0.422428D-05    0.421141D+00
   0   192    0.183653D-08    0.710148D-02    0.237682D-05    0.421245D+00
   0   193    0.529204D-09    0.469270D-02    0.711680D-06    0.421314D+00
   0   194    0.163631D-09    0.308521D-02    0.232244D-07    0.421359D+00
   0   195    0.503069D-10    0.201938D-02    0.400360D-07    0.421390D+00
   0   196    0.152496D-10    0.131664D-02    0.426252D-08    0.421410D+00
   0   197    0.453391D-11    0.855547D-03    0.517235D-08    0.421423D+00
   0   198    0.134409D-11    0.554286D-03    0.623524D-09    0.421431D+00
   0   199    0.395462D-12    0.358175D-03    0.362669D-09    0.421437D+00
   0   200    0.113965D-12    0.230921D-03    0.586035D-10    0.421440D+00
   0   201    0.328633D-13    0.148580D-03    0.239573D-10    0.421443D+00
   0   202    0.928802D-14    0.954310D-04    0.842586D-11    0.421444D+00
   0   203    0.260643D-14    0.611982D-04    0.818022D-12    0.421445D+00
   0   204    0.732385D-15    0.391911D-04    0.144734D-12    0.421446D+00
   0   205    0.205485D-15    0.250672D-04    0.630632D-13    0.421446D+00
   0   206    0.549124D-16    0.160159D-04    0.696396D-13    0.421447D+00
   0   207    0.148473D-16    0.102230D-04    0.139541D-13    0.421447D+00
   0   208    0.413051D-17    0.651976D-05    0.203684D-14    0.421447D+00
   0   209    0.109823D-17    0.415482D-05    0.149621D-14    0.421447D+00
   0   210    0.288530D-18    0.264592D-05    0.165056D-15    0.421447D+00
   0   211    0.721427D-19    0.168397D-05    0.109364D-15    0.421447D+00
   0   212    0.187455D-19    0.107116D-05    0.844505D-17    0.421447D+00
   0   213    0.480479D-20    0.681022D-06    0.210319D-17    0.421447D+00
   0   214    0.127818D-20    0.432789D-06    0.526076D-18    0.421447D+00
   0   215    0.328800D-21    0.274928D-06    0.414546D-18    0.421447D+00
   0   216    0.814226D-22    0.174584D-06    0.820959D-19    0.421447D+00
   0   217    0.211168D-22    0.110829D-06    0.540298D-20    0.421447D+00
   0   218    0.533087D-23    0.703356D-07    0.494532D-20    0.421447D+00
   0   219    0.134366D-23    0.446256D-07    0.389530D-21    0.421447D+00
   0   220    0.333963D-24    0.283069D-07    0.142452D-21    0.421447D+00
   0   221    0.830809D-25    0.179518D-07    0.105600D-21    0.421447D+00
   0   222    0.202487D-25    0.113826D-07    0.101187D-22    0.421447D+00
   0   223    0.490919D-26    0.721612D-08    0.513127D-23    0.421447D+00
   0   224    0.122523D-26    0.457403D-08    0.945652D-24    0.421447D+00
   0   225    0.310442D-27    0.289892D-08    0.294826D-24    0.421447D+00
   0   226    0.750502D-28    0.183704D-08    0.719980D-25    0.421447D+00
   0   227    0.182622D-28    0.116401D-08    0.531892D-26    0.421447D+00
   0   228    0.453811D-29    0.737483D-09    0.181554D-26    0.421447D+00
   0   229    0.113357D-29    0.467207D-09    0.455902D-27    0.421447D+00
   0   230    0.283081D-30    0.295961D-09    0.730666D-28    0.421447D+00
   0   231    0.686005D-31    0.187469D-09    0.455498D-28    0.421447D+00
   0   232    0.166874D-31    0.118740D-09    0.229363D-28    0.421447D+00
   0   233    0.393344D-32    0.752036D-10    0.514570D-29    0.421447D+00
   0   234    0.958212D-33    0.476277D-10    0.422364D-30    0.421447D+00
   0   235    0.239186D-33    0.301620D-10    0.825843D-31    0.421447D+00
   0   236    0.594682D-34    0.191004D-10    0.392501D-31    0.421447D+00
   0   237    0.143545D-34    0.120951D-10    0.804278D-32    0.421447D+00
   0   238    0.347165D-35    0.765873D-11    0.131526D-32    0.421447D+00
   0   239    0.824607D-36    0.484943D-11    0.778838D-33    0.421447D+00
   0   240    0.193337D-36    0.307050D-11    0.142263D-33    0.421447D+00
   0   241    0.463592D-37    0.194408D-11    0.293713D-34    0.421447D+00
   0   242    0.110321D-37    0.123085D-11    0.689024D-35    0.421447D+00
   0   243    0.269961D-38    0.779264D-12    0.339982D-35    0.421447D+00
   0   244    0.641773D-39    0.493344D-12    0.557788D-36    0.421447D+00
   0   245    0.155118D-39    0.312322D-12    0.151877D-36    0.421447D+00
   0   246    0.380099D-40    0.197716D-12    0.199160D-37    0.421447D+00
   0   247    0.901586D-41    0.125161D-12    0.696309D-38    0.421447D+00
   0   248    0.214766D-41    0.792287D-13    0.235118D-38    0.421447D+00
   0   249    0.523224D-42    0.501515D-13    0.150792D-39    0.421447D+00
   0   250    0.123365D-42    0.317448D-13    0.146499D-39    0.421447D+00
   0   251    0.299113D-43    0.200931D-13    0.128896D-40    0.421447D+00
   0   252    0.701544D-44    0.127177D-13    0.620813D-41    0.421447D+00
   0   253    0.167878D-44    0.804931D-14    0.112401D-41    0.421447D+00
   0   254    0.401963D-45    0.509442D-14    0.407033D-42    0.421447D+00
   0   255    0.943175D-46    0.322417D-14    0.123726D-42    0.421447D+00
   0   256    0.221551D-46    0.204046D-14    0.173657D-43    0.421447D+00
   0   257    0.519805D-47    0.129129D-14    0.574875D-44    0.421447D+00
   0   258    0.125087D-47    0.817162D-15    0.948846D-45    0.421447D+00
   0   259    0.296872D-48    0.517105D-15    0.433665D-45    0.421447D+00
   0   260    0.716673D-49    0.327217D-15    0.637551D-46    0.421447D+00
   0   261    0.169268D-49    0.207052D-15    0.959293D-47    0.421447D+00
   0   262    0.405727D-50    0.131012D-15    0.576643D-47    0.421447D+00
   0   263    0.978430D-51    0.828954D-16    0.365642D-48    0.421447D+00
   0   264    0.232704D-51    0.524489D-16    0.979445D-49    0.421447D+00
   0   265    0.547235D-52    0.331840D-16    0.314787D-49    0.421447D+00
   0   266    0.131104D-52    0.209947D-16    0.130628D-49    0.421447D+00
   0   267    0.315232D-53    0.132825D-16    0.263060D-50    0.421447D+00
   0   268    0.740441D-54    0.840301D-17    0.739768D-51    0.421447D+00
   0   269    0.176430D-54    0.531593D-17    0.578599D-52    0.421447D+00
   0   270    0.411868D-55    0.336288D-17    0.584738D-52    0.421447D+00
   0   271    0.978653D-56    0.212732D-17    0.643021D-53    0.421447D+00
   0   272    0.233967D-56    0.134568D-17    0.176035D-53    0.421447D+00
   0   273    0.565094D-57    0.851217D-18    0.525655D-54    0.421447D+00
   0   274    0.131073D-57    0.538428D-18    0.185733D-54    0.421447D+00
   0   275    0.326319D-58    0.340568D-18    0.422845D-55    0.421447D+00
   0   276    0.786906D-59    0.215412D-18    0.754682D-56    0.421447D+00
   0   277    0.183021D-59    0.136247D-18    0.749754D-57    0.421447D+00
   0   278    0.436141D-60    0.861730D-19    0.543144D-57    0.421447D+00
   0   279    0.103389D-60    0.545012D-19    0.465625D-58    0.421447D+00
   0   280    0.244360D-61    0.344692D-19    0.178925D-58    0.421447D+00
   0   281    0.586437D-62    0.217995D-19    0.407242D-59    0.421447D+00
   0   282    0.136548D-62    0.137864D-19    0.796279D-60    0.421447D+00
   0   283    0.318150D-63    0.871861D-20    0.215444D-60    0.421447D+00
   0   284    0.743604D-64    0.551356D-20    0.105060D-60    0.421447D+00
   0   285    0.181910D-64    0.348664D-20    0.158139D-61    0.421447D+00
   0   286    0.427040D-65    0.220481D-20    0.476813D-62    0.421447D+00
   0   287    0.102734D-65    0.139420D-20    0.108860D-62    0.421447D+00
   0   288    0.247770D-66    0.881596D-21    0.222235D-63    0.421447D+00
   0   289    0.578665D-67    0.557445D-21    0.192472D-64    0.421447D+00
   0   290    0.135368D-67    0.352470D-21    0.740594D-65    0.421447D+00
   0   291    0.314682D-68    0.222859D-21    0.367853D-65    0.421447D+00
   0   292    0.741571D-69    0.140905D-21    0.843392D-66    0.421447D+00
   0   293    0.177496D-69    0.890853D-22    0.179467D-66    0.421447D+00
   0   294    0.406674D-70    0.563213D-22    0.536530D-67    0.421447D+00
   0   295    0.959384D-71    0.356060D-22    0.122542D-67    0.421447D+00
   0   296    0.228432D-71    0.225090D-22    0.162233D-68    0.421447D+00
   0   297    0.537250D-72    0.142289D-22    0.403807D-69    0.421447D+00
   0   298    0.128820D-72    0.899431D-23    0.617170D-70    0.421447D+00
   0   299    0.297455D-73    0.568515D-23    0.394417D-70    0.421447D+00
   0   300    0.710486D-74    0.359330D-23    0.555125D-71    0.421447D+00
   0   301    0.171340D-74    0.227101D-23    0.107699D-71    0.421447D+00
   0   302    0.397163D-75    0.143522D-23    0.482480D-72    0.421447D+00
   0   303    0.932530D-76    0.906962D-24    0.951048D-73    0.421447D+00
   0   304    0.216121D-76    0.573095D-24    0.722709D-74    0.421447D+00
   0   305    0.500101D-77    0.362102D-24    0.291017D-74    0.421447D+00
   0   306    0.120915D-77    0.228769D-24    0.971328D-75    0.421447D+00
   0   307    0.278323D-78    0.144518D-24    0.115616D-75    0.421447D+00
   0   308    0.666359D-79    0.912861D-25    0.347863D-76    0.421447D+00
   0   309    0.154220D-79    0.576554D-25    0.150461D-76    0.421447D+00
   0   310    0.369728D-80    0.364103D-25    0.343150D-77    0.421447D+00
   0   311    0.864862D-81    0.229908D-25    0.543137D-78    0.421447D+00
   0   312    0.207227D-81    0.145153D-25    0.276983D-78    0.421447D+00
   0   313    0.486709D-82    0.916292D-26    0.659187D-79    0.421447D+00
   0   314    0.115431D-82    0.578329D-26    0.751850D-80    0.421447D+00
   0   315    0.271581D-83    0.364959D-26    0.255031D-80    0.421447D+00
   0   316    0.656640D-84    0.230270D-26    0.770095D-81    0.421447D+00
   0   317    0.151902D-84    0.145261D-26    0.119210D-81    0.421447D+00
   0   318    0.370445D-85    0.916162D-27    0.187475D-82    0.421447D+00
   0   319    0.869139D-86    0.577702D-27    0.916019D-83    0.421447D+00
   0   320    0.207952D-86    0.364198D-27    0.170844D-83    0.421447D+00
   0   321    0.479563D-87    0.229545D-27    0.182596D-84    0.421447D+00
   0   322    0.111993D-87    0.144640D-27    0.111694D-84    0.421447D+00
   0   323    0.259268D-88    0.911160D-28    0.257525D-85    0.421447D+00
   0   324    0.616923D-89    0.573824D-28    0.659836D-86    0.421447D+00
   0   325    0.142570D-89    0.361272D-28    0.135449D-86    0.421447D+00
   0   326    0.343517D-90    0.227382D-28    0.504383D-87    0.421447D+00
   0   327    0.813545D-91    0.143067D-28    0.651754D-88    0.421447D+00
   0   328    0.190973D-91    0.899854D-29    0.118129D-88    0.421447D+00
   0   329    0.443693D-92    0.565786D-29    0.639087D-89    0.421447D+00
   0   330    0.100742D-92    0.355608D-29    0.569814D-90    0.421447D+00
   0   331    0.239128D-93    0.223421D-29    0.342748D-90    0.421447D+00
   0   332    0.584208D-94    0.140314D-29    0.325525D-91    0.421447D+00
   0   333    0.135690D-94    0.880841D-30    0.170132D-91    0.421447D+00
   0   334    0.308833D-95    0.552721D-30    0.430223D-92    0.421447D+00
   0   335    0.760540D-96    0.346672D-30    0.475458D-93    0.421447D+00
   0   336    0.181752D-96    0.217335D-30    0.182564D-93    0.421447D+00
   0   337    0.423278D-97    0.136186D-30    0.195601D-94    0.421447D+00
   0   338    0.995994D-98    0.852942D-31    0.726298D-95    0.421447D+00
   0   339    0.229639D-98    0.533929D-31    0.104977D-95    0.421447D+00
   0   340    0.542259D-99    0.334055D-31    0.522982D-96    0.421447D+00
   0   341    0.128649D-99    0.208889D-31    0.709085D-97    0.421447D+00
   0   342    0.299328-100    0.130548D-31    0.116462D-97    0.421447D+00
   0   343    0.711032-101    0.815411D-32    0.958725D-98    0.421447D+00
   0   344    0.172665-101    0.509009D-32    0.235241D-98    0.421447D+00
   0   345    0.410353-102    0.317549D-32    0.499204D-99    0.421447D+00
   0   346    0.978734-103    0.197983D-32    0.515900-100    0.421447D+00
   0   347    0.222867-103    0.123358D-32    0.118087-100    0.421447D+00
   0   348    0.522653-104    0.768116D-33    0.559624-101    0.421447D+00
   0   349    0.122325-104    0.477966D-33    0.736873-102    0.421447D+00
   0   350    0.284282-105    0.297217D-33    0.200915-102    0.421447D+00
   0   351    0.663992-106    0.184693D-33    0.689392-103    0.421447D+00
   0   352    0.155368-106    0.114688D-33    0.138320-103    0.421447D+00
   0   353    0.370790-107    0.711667D-34    0.211816-104    0.421447D+00
   0   354    0.877433-108    0.441283D-34    0.561710-105    0.421447D+00
   0   355    0.206145-108    0.273422D-34    0.955078-106    0.421447D+00
   0   356    0.487472-109    0.169287D-34    0.527498-106    0.421447D+00
   0   357    0.112648-109    0.104732D-34    0.681484-107    0.421447D+00
   0   358    0.269771-110    0.647432D-35    0.369533-107    0.421447D+00
   0   359    0.623292-111    0.399914D-35    0.940310-108    0.421447D+00
   0   360    0.146677-111    0.246826D-35    0.164175-108    0.421447D+00
   0   361    0.332811-112    0.152216D-35    0.185307-109    0.421447D+00
   0   362    0.803222-113    0.937935D-36    0.112761-109    0.421447D+00
   0   363    0.183878-113    0.577460D-36    0.131649-110    0.421447D+00
   0   364    0.439250-114    0.355226D-36    0.268049-111    0.421447D+00
   0   365    0.103832-114    0.218331D-36    0.153245-111    0.421447D+00
   0   366    0.244313-115    0.134076D-36    0.355156-112    0.421447D+00
   0   367    0.606439-116    0.822635D-37    0.191508-113    0.421447D+00
   0   368    0.145290-116    0.504289D-37    0.125526-113    0.421447D+00
   0   369    0.341349-117    0.308863D-37    0.403649-114    0.421447D+00
   0   370    0.801206-118    0.188999D-37    0.741075-115    0.421447D+00
   0   371    0.193163-118    0.115547D-37    0.139420-115    0.421447D+00
   0   372    0.445276-119    0.705768D-38    0.507425-116    0.421447D+00
   0   373    0.104492-119    0.430688D-38    0.145685-116    0.421447D+00
   0   374    0.243623-120    0.262578D-38    0.124288-117    0.421447D+00
   0   375    0.580004-121    0.159936D-38    0.687727-118    0.421447D+00
   0   376    0.137613-121    0.973252D-39    0.194589-118    0.421447D+00
   0   377    0.319954-122    0.591683D-39    0.164706-119    0.421447D+00
   0   378    0.733685-123    0.359366D-39    0.488035-120    0.421447D+00
   0   379    0.174283-123    0.218055D-39    0.213102-120    0.421447D+00
   0   380    0.414350-124    0.132182D-39    0.400286-121    0.421447D+00
   0   381    0.967028-125    0.800488D-40    0.504522-122    0.421447D+00
   0   382    0.223512-125    0.484295D-40    0.164968-122    0.421447D+00
   0   383    0.515316-126    0.292709D-40    0.245768-123    0.421447D+00
   0   384    0.123926-126    0.176738D-40    0.151403-123    0.421447D+00
   0   385    0.297948-127    0.106608D-40    0.213585-124    0.421447D+00
   0   386    0.680541-128    0.642416D-41    0.516200-125    0.421447D+00
   0   387    0.157206-128    0.386725D-41    0.101484-125    0.421447D+00
   0   388    0.365225-129    0.232567D-41    0.536189-126    0.421447D+00
   0   389    0.872677-130    0.139717D-41    0.546025-127    0.421447D+00
   0   390    0.211414-130    0.838500D-42    0.134731-127    0.421447D+00
   0   391    0.493524-131    0.502684D-42    0.391652-128    0.421447D+00
   0   392    0.111284-131    0.301021D-42    0.150094-128    0.421447D+00
   0   393    0.266510-132    0.180022D-42    0.376114-129    0.421447D+00
   0   394    0.632492-133    0.107462D-42    0.779506-130    0.421447D+00
   0   395    0.153162-133    0.639350D-43    0.137331-130    0.421447D+00
   0   396    0.365232-134    0.377503D-43    0.206798-131    0.421447D+00
   0   397    0.857862-135    0.218447D-43    0.983023-132    0.421447D+00