variables =  "IG"  "JG"  "PHI"  "Temp."  "Latent_heat"  "mm"
ZONE  I=  401  J=  101
   0     0    0.100000D+01    0.466228D+00    0.000000D+00    0.396951D+00
   0     1    0.100000D+01    0.466228D+00    0.000000D+00    0.396951D+00
   0     2    0.100000D+01    0.472857D+00    0.000000D+00    0.396300D+00
   0     3    0.100000D+01    0.485922D+00    0.000000D+00    0.394967D+00
   0     4    0.100000D+01    0.505044D+00    0.266454D-10    0.392896D+00
   0     5    0.100000D+01    0.529678D+00    0.146549D-09    0.389989D+00
   0     6    0.100000D+01    0.559146D+00    0.293099D-09    0.386104D+00
   0     7    0.100000D+01    0.592668D+00    0.341061D-08    0.381039D+00
   0     8    0.100000D+01    0.629398D+00    0.538236D-07    0.374501D+00
   0     9    0.100000D+01    0.668465D+00    0.363976D-06    0.366079D+00
   0    10    0.100000D+01    0.709010D+00    0.559130D-05    0.355172D+00
   0    11    0.100000D+01    0.750222D+00    0.305224D-04    0.340901D+00
   0    12    0.100000D+01    0.791366D+00    0.256830D-03    0.321945D+00
   0    13    0.999997D+00    0.831820D+00    0.247795D-02    0.296300D+00
   0    14    0.999979D+00    0.871109D+00    0.297356D-02    0.260932D+00
   0    15    0.999845D+00    0.908973D+00    0.885136D-01    0.211491D+00
   0    16    0.998933D+00    0.945457D+00    0.697238D+00    0.142949D+00
   0    17    0.992965D+00    0.980686D+00    0.612416D+01    0.544595D-01
   0    18    0.959368D+00    0.101400D+01    0.127477D+02   -0.399960D-01
   0    19    0.809946D+00    0.104196D+01    0.384133D+02   -0.112311D+00
   0    20    0.443789D+00    0.103854D+01   -0.390571D+02   -0.107045D+00
   0    21    0.238637D+00    0.984552D+00    0.634972D+02    0.408832D-01
   0    22    0.133074D+00    0.893674D+00    0.228767D+01    0.233814D+00
   0    23    0.604403D-01    0.757006D+00   -0.143205D+02    0.338197D+00
   0    24    0.231537D-01    0.598716D+00    0.908699D+01    0.380126D+00
   0    25    0.809086D-02    0.451044D+00    0.322625D+01    0.398435D+00
   0    26    0.271224D-02    0.327619D+00   -0.740334D-03    0.407732D+00
   0    27    0.868961D-03    0.231542D+00    0.794282D+00    0.412946D+00
   0    28    0.275706D-03    0.159952D+00    0.146183D+00    0.416068D+00
   0    29    0.820518D-04    0.108319D+00    0.760870D-01    0.418013D+00
   0    30    0.241405D-04    0.720563D-01    0.169909D-01    0.419251D+00
   0    31    0.681710D-05    0.471502D-01    0.775131D-02    0.420047D+00
   0    32    0.191468D-05    0.303804D-01    0.126792D-02    0.420561D+00
   0    33    0.527129D-06    0.192903D-01    0.165345D-03    0.420891D+00
   0    34    0.147924D-06    0.120782D-01    0.144976D-03    0.421101D+00
   0    35    0.390703D-07    0.746118D-02    0.326929D-04    0.421234D+00
   0    36    0.104021D-07    0.454929D-02    0.323945D-05    0.421318D+00
   0    37    0.270769D-08    0.273885D-02    0.191018D-05    0.421369D+00
   0    38    0.683895D-09    0.162860D-02    0.591089D-06    0.421401D+00
   0    39    0.174819D-09    0.956745D-03    0.197722D-06    0.421420D+00
   0    40    0.446989D-10    0.555401D-03    0.342899D-07    0.421431D+00
   0    41    0.112921D-10    0.318660D-03    0.986934D-08    0.421438D+00
   0    42    0.283051D-11    0.180728D-03    0.711820D-09    0.421442D+00
   0    43    0.706482D-12    0.101336D-03    0.337736D-09    0.421444D+00
   0    44    0.174652D-12    0.561806D-04    0.190054D-09    0.421445D+00
   0    45    0.406717D-13    0.307993D-04    0.512095D-10    0.421446D+00
   0    46    0.987946D-14    0.166979D-04    0.294716D-11    0.421447D+00
   0    47    0.231129D-14    0.895334D-05    0.337907D-11    0.421447D+00
   0    48    0.540540D-15    0.474829D-05    0.232036D-12    0.421447D+00
   0    49    0.127871D-15    0.249084D-05    0.646919D-13    0.421447D+00
   0    50    0.299307D-16    0.129251D-05    0.120092D-13    0.421447D+00
   0    51    0.691283D-17    0.663471D-06    0.652386D-14    0.421447D+00
   0    52    0.153773D-17    0.336924D-06    0.120577D-14    0.421447D+00
   0    53    0.343155D-18    0.169271D-06    0.428919D-15    0.421447D+00
   0    54    0.784712D-19    0.841383D-07    0.881639D-16    0.421447D+00
   0    55    0.172394D-19    0.413791D-07    0.177923D-16    0.421447D+00
   0    56    0.377851D-20    0.201355D-07    0.483906D-17    0.421447D+00
   0    57    0.803945D-21    0.969511D-08    0.549075D-18    0.421447D+00
   0    58    0.175687D-21    0.461924D-08    0.207139D-18    0.421447D+00
   0    59    0.366129D-22    0.217787D-08    0.264173D-19    0.421447D+00
   0    60    0.770729D-23    0.101614D-08    0.707390D-20    0.421447D+00
   0    61    0.156934D-23    0.469190D-09    0.275005D-20    0.421447D+00
   0    62    0.319292D-24    0.214405D-09    0.580133D-21    0.421447D+00
   0    63    0.648746D-25    0.969684D-10    0.519100D-22    0.421447D+00
   0    64    0.129263D-25    0.434059D-10    0.176942D-22    0.421447D+00
   0    65    0.255514D-26    0.192312D-10    0.274164D-23    0.421447D+00
   0    66    0.486951D-27    0.843375D-11    0.441998D-24    0.421447D+00
   0    67    0.929954D-28    0.366107D-11    0.147409D-24    0.421447D+00
   0    68    0.176851D-28    0.157320D-11    0.344902D-25    0.421447D+00
   0    69    0.335067D-29    0.669212D-12    0.391137D-26    0.421447D+00
   0    70    0.627873D-30    0.281817D-12    0.836833D-27    0.421447D+00
   0    71    0.110964D-30    0.117492D-12    0.212382D-27    0.421447D+00
   0    72    0.203702D-31    0.484962D-13    0.282001D-28    0.421447D+00
   0    73    0.355166D-32    0.198189D-13    0.574411D-29    0.421447D+00
   0    74    0.624342D-33    0.801938D-14    0.120378D-29    0.421447D+00
   0    75    0.108466D-33    0.321300D-14    0.235070D-30    0.421447D+00
   0    76    0.186275D-34    0.127470D-14    0.343733D-31    0.421447D+00
   0    77    0.318167D-35    0.500778D-15    0.421746D-32    0.421447D+00
   0    78    0.534890D-36    0.194825D-15    0.112620D-32    0.421447D+00
   0    79    0.867883D-37    0.750627D-16    0.111285D-33    0.421447D+00
   0    80    0.143595D-37    0.286418D-16    0.199048D-34    0.421447D+00
   0    81    0.236046D-38    0.108241D-16    0.535501D-35    0.421447D+00
   0    82    0.373352D-39    0.405153D-17    0.504041D-36    0.421447D+00
   0    83    0.577250D-40    0.150209D-17    0.986996D-37    0.421447D+00
   0    84    0.885162D-41    0.551629D-18    0.188982D-37    0.421447D+00
   0    85    0.137492D-41    0.200672D-18    0.233384D-38    0.421447D+00
   0    86    0.205586D-42    0.723163D-19    0.349519D-39    0.421447D+00
   0    87    0.306765D-43    0.258174D-19    0.574755D-40    0.421447D+00
   0    88    0.446369D-44    0.913138D-20    0.119976D-40    0.421447D+00
   0    89    0.651758D-45    0.319983D-20    0.133233D-41    0.421447D+00
   0    90    0.946580D-46    0.111097D-20    0.261886D-42    0.421447D+00
   0    91    0.131878D-46    0.382193D-21    0.308251D-43    0.421447D+00
   0    92    0.188941D-47    0.130283D-21    0.327720D-44    0.421447D+00
   0    93    0.264806D-48    0.440083D-22    0.736739D-45    0.421447D+00
   0    94    0.362302D-49    0.147315D-22    0.100607D-45    0.421447D+00
   0    95    0.488294D-50    0.488698D-23    0.138995D-46    0.421447D+00
   0    96    0.657183D-51    0.160671D-23    0.120396D-47    0.421447D+00
   0    97    0.857380D-52    0.523547D-24    0.240781D-48    0.421447D+00
   0    98    0.112318D-52    0.169089D-24    0.310495D-49    0.421447D+00
   0    99    0.144757D-53    0.541299D-25    0.413030D-50    0.421447D+00
   0   100    0.185972D-54    0.171767D-25    0.444793D-51    0.421447D+00
   0   101    0.235614D-55    0.540310D-26    0.708888D-52    0.421447D+00
   0   102    0.297511D-56    0.168487D-26    0.844474D-53    0.421447D+00
   0   103    0.364894D-57    0.520871D-27    0.922862D-54    0.421447D+00
   0   104    0.454153D-58    0.159644D-27    0.979110D-55    0.421447D+00
   0   105    0.555480D-59    0.485129D-28    0.186070D-55    0.421447D+00
   0   106    0.663062D-60    0.146170D-28    0.199805D-56    0.421447D+00
   0   107    0.800144D-61    0.436696D-29    0.201607D-57    0.421447D+00
   0   108    0.952975D-62    0.129371D-29    0.235017D-58    0.421447D+00
   0   109    0.110961D-62    0.380062D-30    0.283868D-59    0.421447D+00
   0   110    0.125810D-63    0.110726D-30    0.333469D-60    0.421447D+00
   0   111    0.143834D-64    0.319918D-31    0.380896D-61    0.421447D+00
   0   112    0.164622D-65    0.916737D-32    0.424041D-62    0.421447D+00
   0   113    0.188753D-66    0.260547D-32    0.595005D-63    0.421447D+00
   0   114    0.208752D-67    0.734483D-33    0.760004D-64    0.421447D+00
   0   115    0.230580D-68    0.205376D-33    0.785543D-65    0.421447D+00
   0   116    0.256291D-69    0.569655D-34    0.928119D-66    0.421447D+00
   0   117    0.278850D-70    0.156742D-34    0.806301D-67    0.421447D+00
   0   118    0.296367D-71    0.427847D-35    0.101391D-67    0.421447D+00
   0   119    0.318097D-72    0.115862D-35    0.120589D-68    0.421447D+00
   0   120    0.328987D-73    0.311287D-36    0.126758D-69    0.421447D+00
   0   121    0.345202D-74    0.829790D-37    0.984282D-71    0.421447D+00
   0   122    0.355388D-75    0.219472D-37    0.117807D-71    0.421447D+00
   0   123    0.360557D-76    0.575990D-38    0.114907D-72    0.421447D+00
   0   124    0.365251D-77    0.150000D-38    0.116873D-73    0.421447D+00
   0   125    0.367781D-78    0.387640D-39    0.125728D-74    0.421447D+00
   0   126    0.368424D-79    0.994129D-40    0.115845D-75    0.421447D+00
   0   127    0.358832D-80    0.253019D-40    0.126736D-76    0.421447D+00
   0   128    0.352159D-81    0.639112D-41    0.115679D-77    0.421447D+00
   0   129    0.339353D-82    0.160226D-41    0.140328D-78    0.421447D+00
   0   130    0.321604D-83    0.398692D-42    0.123517D-79    0.421447D+00
   0   131    0.311165D-84    0.984712D-43    0.104421D-80    0.421447D+00
   0   132    0.293261D-85    0.241415D-43    0.111905D-81    0.421447D+00
   0   133    0.285315D-86    0.587518D-44    0.122054D-82    0.421447D+00
   0   134    0.257469D-87    0.141937D-44    0.948646D-84    0.421447D+00
   0   135    0.234794D-88    0.340414D-45    0.898750D-85    0.421447D+00
   0   136    0.215010D-89    0.810533D-46    0.897484D-86    0.421447D+00
   0   137    0.198720D-90    0.191603D-46    0.855882D-87    0.421447D+00
   0   138    0.178651D-91    0.449698D-47    0.823290D-88    0.421447D+00
   0   139    0.159965D-92    0.104795D-47    0.598942D-89    0.421447D+00
   0   140    0.140546D-93    0.242483D-48    0.631447D-90    0.421447D+00
   0   141    0.123933D-94    0.557128D-49    0.573613D-91    0.421447D+00
   0   142    0.109018D-95    0.127110D-49    0.444051D-92    0.421447D+00
   0   143    0.935224D-97    0.287987D-50    0.362353D-93    0.421447D+00
   0   144    0.802855D-98    0.647961D-51    0.397547D-94    0.421447D+00
   0   145    0.686878D-99    0.144785D-51    0.289463D-95    0.421447D+00
   0   146    0.585796-100    0.321302D-52    0.267549D-96    0.421447D+00
   0   147    0.503339-101    0.708162D-53    0.227324D-97    0.421447D+00
   0   148    0.414703-102    0.155023D-53    0.180989D-98    0.421447D+00
   0   149    0.344669-103    0.337072D-54    0.169469D-99    0.421447D+00
   0   150    0.287785-104    0.727989D-55    0.120300-100    0.421447D+00
   0   151    0.234307-105    0.156177D-55    0.985340-102    0.421447D+00
   0   152    0.192754-106    0.332825D-56    0.899789-103    0.421447D+00
   0   153    0.152031-107    0.704587D-57    0.694886-104    0.421447D+00
   0   154    0.120498-108    0.148180D-57    0.586278-105    0.421447D+00
   0   155    0.960677-110    0.309594D-58    0.420933-106    0.421447D+00
   0   156    0.762475-111    0.642631D-59    0.340644-107    0.421447D+00
   0   157    0.596023-112    0.132528D-59    0.297287-108    0.421447D+00
   0   158    0.457524-113    0.271549D-60    0.213608-109    0.421447D+00
   0   159    0.359555-114    0.552834D-61    0.161542-110    0.421447D+00
   0   160    0.281881-115    0.111831D-61    0.129679-111    0.421447D+00
   0   161    0.214348-116    0.224783D-62    0.115804-112    0.421447D+00
   0   162    0.163460-117    0.448965D-63    0.874538-114    0.421447D+00
   0   163    0.121863-118    0.891096D-64    0.582864-115    0.421447D+00
   0   164    0.924513-120    0.175756D-64    0.489164-116    0.421447D+00
   0   165    0.675724-121    0.344498D-65    0.373580-117    0.421447D+00
   0   166    0.495970-122    0.671063D-66    0.238941-118    0.421447D+00
   0   167    0.351592-123    0.129914D-66    0.205330-119    0.421447D+00
   0   168    0.259163-124    0.249963D-67    0.141732-120    0.421447D+00
   0   169    0.185017-125    0.478010D-68    0.985663-122    0.421447D+00
   0   170    0.133101-126    0.908555D-69    0.699437-123    0.421447D+00
   0   171    0.961956-128    0.171645D-69    0.520303-124    0.421447D+00
   0   172    0.671253-129    0.322323D-70    0.406212-125    0.421447D+00
   0   173    0.469538-130    0.601648D-71    0.263324-126    0.421447D+00
   0   174    0.325762-131    0.111634D-71    0.188052-127    0.421447D+00
   0   175    0.225122-132    0.205905D-72    0.119928-128    0.421447D+00
   0   176    0.155053-133    0.377543D-73    0.834817-130    0.421447D+00
   0   177    0.104985-134    0.688185D-74    0.642542-131    0.421447D+00
   0   178    0.718726-136    0.124708D-74    0.380142-132    0.421447D+00
   0   179    0.495295-137    0.224673D-75    0.277203-133    0.421447D+00
   0   180    0.334092-138    0.402421D-76    0.215920-134    0.421447D+00
   0   181    0.218275-139    0.716636D-77    0.137880-135    0.421447D+00
   0   182    0.147485-140    0.126886D-77    0.851561-137    0.421447D+00
   0   183    0.964396-142    0.223378D-78    0.648945-138    0.421447D+00
   0   184    0.641602-143    0.391011D-79    0.377676-139    0.421447D+00
   0   185    0.420200-144    0.680565D-80    0.261365-140    0.421447D+00
   0   186    0.270939-145    0.117786D-80    0.185415-141    0.421447D+00
   0   187    0.173205-146    0.202709D-81    0.106021-142    0.421447D+00
   0   188    0.112013-147    0.346912D-82    0.664855-144    0.421447D+00
   0   189    0.707889-149    0.590393D-83    0.472480-145    0.421447D+00
   0   190    0.441929-150    0.999197D-84    0.312429-146    0.421447D+00
   0   191    0.285232-151    0.168174D-84    0.161867-147    0.421447D+00
   0   192    0.179650-152    0.281498D-85    0.123949-148    0.421447D+00
   0   193    0.108796-153    0.468610D-86    0.671017-150    0.421447D+00
   0   194    0.679174-155    0.775849D-87    0.478548-151    0.421447D+00
   0   195    0.414383-156    0.127756D-87    0.264595-152    0.421447D+00
   0   196    0.253413-157    0.209237D-88    0.170476-153    0.421447D+00
   0   197    0.156643-158    0.340843D-89    0.107145-154    0.421447D+00
   0   198    0.958343-160    0.552257D-90    0.691649-156    0.421447D+00
   0   199    0.568770-161    0.890038D-91    0.365573-157    0.421447D+00
   0   200    0.337478-162    0.142681D-91    0.242469-158    0.421447D+00
   0   201    0.199945-163    0.227522D-92    0.146084-159    0.421447D+00
   0   202    0.118448-164    0.360903D-93    0.763243-161    0.421447D+00
   0   203    0.696200-166    0.569479D-94    0.450632-162    0.421447D+00
   0   204    0.405208-167    0.893910D-95    0.272180-163    0.421447D+00
   0   205    0.237964-168    0.139588D-95    0.164350-164    0.421447D+00
   0   206    0.136115-169    0.216846D-96    0.918876-166    0.421447D+00
   0   207    0.776863-171    0.335129D-97    0.598676-167    0.421447D+00
   0   208    0.451080-172    0.515274D-98    0.337975-168    0.421447D+00
   0   209    0.259428-173    0.788207D-99    0.197122-169    0.421447D+00
   0   210    0.147045-174    0.119958D-99    0.103443-170    0.421447D+00
   0   211    0.825567-176    0.181639-100    0.613818-172    0.421447D+00
   0   212    0.472199-177    0.273649-101    0.365247-173    0.421447D+00
   0   213    0.263165-178    0.410194-102    0.185252-174    0.421447D+00
   0   214    0.145488-179    0.611795-103    0.114741-175    0.421447D+00
   0   215    0.798819-181    0.907930-104    0.566605-177    0.421447D+00
   0   216    0.440499-182    0.134071-104    0.343445-178    0.421447D+00
   0   217    0.240142-183    0.197000-105    0.185608-179    0.421447D+00
   0   218    0.129952-184    0.288040-106    0.922920-181    0.421447D+00
   0   219    0.710663-186    0.419085-107    0.567383-182    0.421447D+00
   0   220    0.382390-187    0.606770-108    0.313103-183    0.421447D+00
   0   221    0.202236-188    0.874231-109    0.162340-184    0.421447D+00
   0   222    0.105731-189    0.125348-109    0.825323-186    0.421447D+00
   0   223    0.553555-191    0.178857-110    0.426685-187    0.421447D+00
   0   224    0.288532-192    0.253979-111    0.226078-188    0.421447D+00
   0   225    0.152841-193    0.358925-112    0.121189-189    0.421447D+00
   0   226    0.805714-195    0.504813-113    0.641131-191    0.421447D+00
   0   227    0.415822-196    0.706621-114    0.317359-192    0.421447D+00
   0   228    0.213813-197    0.984418-115    0.177135-193    0.421447D+00
   0   229    0.111778-198    0.136495-115    0.868962-195    0.421447D+00
   0   230    0.569319-200    0.188368-116    0.439304-196    0.421447D+00
   0   231    0.290691-201    0.258737-117    0.224880-197    0.421447D+00
   0   232    0.145536-202    0.353735-118    0.124723-198    0.421447D+00
   0   233    0.739615-204    0.481362-119    0.579331-200    0.421447D+00
   0   234    0.369234-205    0.652002-120    0.321836-201    0.421447D+00
   0   235    0.181318-206    0.879057-121    0.160887-202    0.421447D+00
   0   236    0.905492-208    0.117973-121    0.814994-204    0.421447D+00
   0   237    0.452432-209    0.157599-122    0.405384-205    0.421447D+00
   0   238    0.219839-210    0.209574-123    0.188788-206    0.421447D+00
   0   239    0.108661-211    0.277422-124    0.967393-208    0.421447D+00
   0   240    0.543814-213    0.365571-125    0.452422-209    0.421447D+00
   0   241    0.259239-214    0.479553-126    0.245587-210    0.421447D+00
   0   242    0.125230-215    0.626243-127    0.112488-211    0.421447D+00
   0   243    0.607957-217    0.814137-128    0.497138-213    0.421447D+00
   0   244    0.291642-218    0.105368-128    0.272572-214    0.421447D+00
   0   245    0.137918-219    0.135762-129    0.131193-215    0.421447D+00
   0   246    0.651092-221    0.174149-130    0.581972-217    0.421447D+00
   0   247    0.304440-222    0.222401-131    0.279832-218    0.421447D+00
   0   248    0.143743-223    0.282773-132    0.127981-219    0.421447D+00
   0   249    0.675864-225    0.357954-133    0.649919-221    0.421447D+00
   0   250    0.316493-226    0.451141-134    0.270081-222    0.421447D+00
   0   251    0.145481-227    0.566110-135    0.135355-223    0.421447D+00
   0   252    0.672031-229    0.707291-136    0.645884-225    0.421447D+00
   0   253    0.305752-230    0.879856-137    0.286192-226    0.421447D+00
   0   254    0.138198-231    0.108980-137    0.133803-227    0.421447D+00
   0   255    0.632339-233    0.134404-138    0.623411-229    0.421447D+00
   0   256    0.290169-234    0.165049-139    0.283073-230    0.421447D+00
   0   257    0.130772-235    0.201815-140    0.118822-231    0.421447D+00
   0   258    0.591516-237    0.245721-141    0.570739-233    0.421447D+00
   0   259    0.268782-238    0.297911-142    0.261263-234    0.421447D+00
   0   260    0.119521-239    0.359658-143    0.116793-235    0.421447D+00
   0   261    0.529251-241    0.432375-144    0.521059-237    0.421447D+00
   0   262    0.233220-242    0.517611-145    0.223601-238    0.421447D+00
   0   263    0.101972-243    0.617056-146    0.102102-239    0.421447D+00
   0   264    0.440133-245    0.732540-147    0.440612-241    0.421447D+00
   0   265    0.192266-246    0.866020-148    0.195293-242    0.421447D+00
   0   266    0.846327-248    0.101958-148    0.803483-244    0.421447D+00
   0   267    0.365904-249    0.119541-149    0.375695-245    0.421447D+00
   0   268    0.157059-250    0.139580-150    0.162622-246    0.421447D+00
   0   269    0.668425-252    0.162309-151    0.648983-248    0.421447D+00
   0   270    0.284330-253    0.187967-152    0.302950-249    0.421447D+00
   0   271    0.121528-254    0.216793-153    0.118464-250    0.421447D+00
   0   272    0.518216-256    0.249025-154    0.525225-252    0.421447D+00
   0   273    0.217882-257    0.284889-155    0.216140-253    0.421447D+00
   0   274    0.919642-259    0.324603-156    0.962890-255    0.421447D+00
   0   275    0.382600-260    0.368364-157    0.385579-256    0.421447D+00
   0   276    0.158032-261    0.416348-158    0.168788-257    0.421447D+00
   0   277    0.652493-263    0.468700-159    0.706887-259    0.421447D+00
   0   278    0.270405-264    0.525531-160    0.293915-260    0.421447D+00
   0   279    0.111992-265    0.586911-161    0.112041-261    0.421447D+00
   0   280    0.457587-267    0.652863-162    0.470336-263    0.421447D+00
   0   281    0.184932-268    0.723357-163    0.198121-264    0.421447D+00
   0   282    0.751894-270    0.798308-164    0.806248-266    0.421447D+00
   0   283    0.307553-271    0.877565-165    0.322448-267    0.421447D+00
   0   284    0.123924-272    0.960917-166    0.138209-268    0.421447D+00
   0   285    0.492060-274    0.104808-166    0.558926-270    0.421447D+00
   0   286    0.198489-275    0.113870-167    0.220441-271    0.421447D+00
   0   287    0.793554-277    0.123236-168    0.905848-273    0.421447D+00
   0   288    0.312305-278    0.132857-169    0.346634-274    0.421447D+00
   0   289    0.124091-279    0.142677-170    0.130067-275    0.421447D+00
   0   290    0.490293-281    0.152634-171    0.553290-277    0.421447D+00
   0   291    0.191824-282    0.162661-172    0.222094-278    0.421447D+00
   0   292    0.750956-284    0.172684-173    0.853277-280    0.421447D+00
   0   293    0.290529-285    0.182626-174    0.318080-281    0.421447D+00
   0   294    0.112087-286    0.192407-175    0.131806-282    0.421447D+00
   0   295    0.433514-288    0.201945-176    0.472247-284    0.421447D+00
   0   296    0.164199-289    0.211155-177    0.196027-285    0.421447D+00
   0   297    0.628211-291    0.219955-178    0.687448-287    0.421447D+00
   0   298    0.240070-292    0.228261-179    0.258915-288    0.421447D+00
   0   299    0.915124-294    0.235995-180    0.999274-290    0.421447D+00
   0   300    0.340542-295    0.243081-181    0.380410-291    0.421447D+00
   0   301    0.129223-296    0.249448-182    0.151534-292    0.421447D+00
   0   302    0.483535-298    0.255032-183    0.591148-294    0.421447D+00
   0   303    0.181409-299    0.259777-184    0.213878-295    0.421447D+00
   0   304    0.677463-301    0.263634-185    0.783961-297    0.421447D+00
   0   305    0.252494-302    0.266565-186    0.283963-298    0.421447D+00
   0   306    0.924326-304    0.268540-187    0.112244-299    0.421447D+00
   0   307    0.342178-305    0.269540-188    0.406101-301    0.421447D+00
   0   308    0.126477-306    0.269557-189    0.153883-302    0.421447D+00
   0   309    0.466467-308    0.268595-190    0.572279-304    0.421447D+00
   0   310    0.170527-309    0.266665-191    0.211345-305    0.421447D+00
   0   311    0.612698-311    0.263792-192    0.743078-307    0.421447D+00
   0   312    0.220582-312    0.260009-193    0.265073-308    0.421447D+00
   0   313    0.798852-314    0.255359-194    0.985079-310    0.421447D+00
   0   314    0.285173-315    0.249892-195    0.345034-311    0.421447D+00
   0   315    0.102333-316    0.243669-196    0.124904-312    0.421447D+00
   0   316    0.363835-318    0.236753-197    0.449946-314    0.421447D+00
   0   317    0.127024-319    0.229215-198    0.172923-315    0.421447D+00
   0   318    0.000000D+00    0.221131-199    0.000000D+00    0.421447D+00
   0   319    0.000000D+00    0.212576-200    0.000000D+00    0.421447D+00
   0   320    0.000000D+00    0.203633-201    0.000000D+00    0.421447D+00
   0   321    0.000000D+00    0.194379-202    0.000000D+00    0.421447D+00
   0   322    0.000000D+00    0.184895-203    0.000000D+00    0.421447D+00
   0   323    0.000000D+00    0.175258-204    0.000000D+00    0.421447D+00
   0   324    0.000000D+00    0.165544-205    0.000000D+00    0.421447D+00
   0   325    0.000000D+00    0.155824-206    0.000000D+00    0.421447D+00
   0   326    0.000000D+00    0.146165-207    0.000000D+00    0.421447D+00
   0   327    0.000000D+00    0.136631-208    0.000000D+00    0.421447D+00
   0   328    0.000000D+00    0.127278-209    0.000000D+00    0.421447D+00
   0   329    0.000000D+00    0.118157-210    0.000000D+00    0.421447D+00
   0   330    0.000000D+00    0.109312-211    0.000000D+00    0.421447D+00
   0   331    0.000000D+00    0.100784-212    0.000000D+00    0.421447D+00
   0   332    0.000000D+00    0.926029-214    0.000000D+00    0.421447D+00
   0   333    0.000000D+00    0.847963-215    0.000000D+00    0.421447D+00
   0   334    0.000000D+00    0.773839-216    0.000000D+00    0.421447D+00
   0   335    0.000000D+00    0.703800-217    0.000000D+00    0.421447D+00
   0   336    0.000000D+00    0.637936-218    0.000000D+00    0.421447D+00
   0   337    0.000000D+00    0.576286-219    0.000000D+00    0.421447D+00
   0   338    0.000000D+00    0.518842-220    0.000000D+00    0.421447D+00
   0   339    0.000000D+00    0.465557-221    0.000000D+00    0.421447D+00
   0   340    0.000000D+00    0.416346-222    0.000000D+00    0.421447D+00
   0   341    0.000000D+00    0.371094-223    0.000000D+00    0.421447D+00
   0   342    0.000000D+00    0.329659-224    0.000000D+00    0.421447D+00
   0   343    0.000000D+00    0.291878-225    0.000000D+00    0.421447D+00
   0   344    0.000000D+00    0.257570-226    0.000000D+00    0.421447D+00
   0   345    0.000000D+00    0.226544-227    0.000000D+00    0.421447D+00
   0   346    0.000000D+00    0.198598-228    0.000000D+00    0.421447D+00
   0   347    0.000000D+00    0.173527-229    0.000000D+00    0.421447D+00
   0   348    0.000000D+00    0.151124-230    0.000000D+00    0.421447D+00
   0   349    0.000000D+00    0.131182-231    0.000000D+00    0.421447D+00
   0   350    0.000000D+00    0.113500-232    0.000000D+00    0.421447D+00
   0   351    0.000000D+00    0.978817-234    0.000000D+00    0.421447D+00
   0   352    0.000000D+00    0.841383-235    0.000000D+00    0.421447D+00
   0   353    0.000000D+00    0.720903-236    0.000000D+00    0.421447D+00
   0   354    0.000000D+00    0.615677-237    0.000000D+00    0.421447D+00
   0   355    0.000000D+00    0.524115-238    0.000000D+00    0.421447D+00
   0   356    0.000000D+00    0.444735-239    0.000000D+00    0.421447D+00
   0   357    0.000000D+00    0.376166-240    0.000000D+00    0.421447D+00
   0   358    0.000000D+00    0.317151-241    0.000000D+00    0.421447D+00
   0   359    0.000000D+00    0.266540-242    0.000000D+00    0.421447D+00
   0   360    0.000000D+00    0.223292-243    0.000000D+00    0.421447D+00
   0   361    0.000000D+00    0.186467-244    0.000000D+00    0.421447D+00
   0   362    0.000000D+00    0.155221-245    0.000000D+00    0.421447D+00
   0   363    0.000000D+00    0.128802-246    0.000000D+00    0.421447D+00
   0   364    0.000000D+00    0.106542-247    0.000000D+00    0.421447D+00
   0   365    0.000000D+00    0.878521-249    0.000000D+00    0.421447D+00
   0   366    0.000000D+00    0.722131-250    0.000000D+00    0.421447D+00
   0   367    0.000000D+00    0.591720-251    0.000000D+00    0.421447D+00
   0   368    0.000000D+00    0.483344-252    0.000000D+00    0.421447D+00
   0   369    0.000000D+00    0.393586-253    0.000000D+00    0.421447D+00
   0   370    0.000000D+00    0.319499-254    0.000000D+00    0.421447D+00
   0   371    0.000000D+00    0.258552-255    0.000000D+00    0.421447D+00
   0   372    0.000000D+00    0.208583-256    0.000000D+00    0.421447D+00
   0   373    0.000000D+00    0.167752-257    0.000000D+00    0.421447D+00
   0   374    0.000000D+00    0.134497-258    0.000000D+00    0.421447D+00
   0   375    0.000000D+00    0.107503-259    0.000000D+00    0.421447D+00
   0   376    0.000000D+00    0.856627-261    0.000000D+00    0.421447D+00
   0   377    0.000000D+00    0.680505-262    0.000000D+00    0.421447D+00
   0   378    0.000000D+00    0.538942-263    0.000000D+00    0.421447D+00
   0   379    0.000000D+00    0.425526-264    0.000000D+00    0.421447D+00
   0   380    0.000000D+00    0.334956-265    0.000000D+00    0.421447D+00
   0   381    0.000000D+00    0.262862-266    0.000000D+00    0.421447D+00
   0   382    0.000000D+00    0.205661-267    0.000000D+00    0.421447D+00
   0   383    0.000000D+00    0.160421-268    0.000000D+00    0.421447D+00
   0   384    0.000000D+00    0.124755-269    0.000000D+00    0.421447D+00
   0   385    0.000000D+00    0.967267-271    0.000000D+00    0.421447D+00
   0   386    0.000000D+00    0.747704-272    0.000000D+00    0.421447D+00
   0   387    0.000000D+00    0.576249-273    0.000000D+00    0.421447D+00
   0   388    0.000000D+00    0.442782-274    0.000000D+00    0.421447D+00
   0   389    0.000000D+00    0.339214-275    0.000000D+00    0.421447D+00
   0   390    0.000000D+00    0.259097-276    0.000000D+00    0.421447D+00
   0   391    0.000000D+00    0.197315-277    0.000000D+00    0.421447D+00
   0   392    0.000000D+00    0.149819-278    0.000000D+00    0.421447D+00
   0   393    0.000000D+00    0.113420-279    0.000000D+00    0.421447D+00
   0   394    0.000000D+00    0.856111-281    0.000000D+00    0.421447D+00
   0   395    0.000000D+00    0.644301-282    0.000000D+00    0.421447D+00
   0   396    0.000000D+00    0.483471-283    0.000000D+00    0.421447D+00
   0   397    0.000000D+00    0.361724-284    0.000000D+00    0.421447D+00