variables =  "IG"  "JG"  "PHI"  "Temp."  "Latent_heat"  "mm"
ZONE  I=  401  J=  101
   0     0    0.100000D+01    0.684098D+00    0.000000D+00    0.362178D+00
   0     1    0.100000D+01    0.684098D+00    0.000000D+00    0.362178D+00
   0     2    0.100000D+01    0.685917D+00    0.000000D+00    0.361701D+00
   0     3    0.100000D+01    0.689532D+00    0.000000D+00    0.360738D+00
   0     4    0.100000D+01    0.694895D+00    0.000000D+00    0.359271D+00
   0     5    0.100000D+01    0.701936D+00    0.000000D+00    0.357272D+00
   0     6    0.100000D+01    0.710565D+00    0.000000D+00    0.354704D+00
   0     7    0.100000D+01    0.720674D+00    0.000000D+00    0.351516D+00
   0     8    0.100000D+01    0.732138D+00    0.000000D+00    0.347645D+00
   0     9    0.100000D+01    0.744819D+00    0.000000D+00    0.343008D+00
   0    10    0.100000D+01    0.758571D+00    0.000000D+00    0.337507D+00
   0    11    0.100000D+01    0.773240D+00    0.532907D-10    0.331017D+00
   0    12    0.100000D+01    0.788670D+00    0.110578D-08    0.323386D+00
   0    13    0.100000D+01    0.804710D+00    0.679456D-08    0.314427D+00
   0    14    0.100000D+01    0.821210D+00    0.258593D-07    0.303906D+00
   0    15    0.100000D+01    0.838035D+00    0.567799D-06    0.291541D+00
   0    16    0.100000D+01    0.855064D+00   -0.428583D-05    0.276978D+00
   0    17    0.100000D+01    0.872206D+00   -0.205732D-04    0.259779D+00
   0    18    0.999999D+00    0.889406D+00    0.381576D-03    0.239394D+00
   0    19    0.999995D+00    0.906669D+00   -0.181392D-02    0.215114D+00
   0    20    0.999958D+00    0.924097D+00   -0.724005D-03    0.185990D+00
   0    21    0.999682D+00    0.941942D+00   -0.618005D-02    0.150681D+00
   0    22    0.997709D+00    0.960685D+00    0.122720D+01    0.107288D+00
   0    23    0.983673D+00    0.980987D+00   -0.569112D+01    0.537713D-01
   0    24    0.895881D+00    0.100355D+01    0.180534D+02   -0.111326D-01
   0    25    0.489619D+00    0.102739D+01    0.113206D+01   -0.780940D-01
   0    26    0.115300D+00    0.102685D+01   -0.425185D+02   -0.747583D-01
   0    27    0.315070D-01    0.102162D+01   -0.976236D+01   -0.603166D-01
   0    28    0.127672D-01    0.101667D+01   -0.222037D+01   -0.473408D-01
   0    29    0.897135D-02    0.101334D+01    0.429099D+00   -0.375924D-01
   0    30    0.806497D-02    0.101129D+01    0.320306D+01   -0.325705D-01
   0    31    0.768991D-02    0.101056D+01   -0.362924D+01   -0.302964D-01
   0    32    0.785175D-02    0.100999D+01    0.380363D+01   -0.281979D-01
   0    33    0.845031D-02    0.100899D+01    0.142643D+01   -0.252699D-01
   0    34    0.927587D-02    0.100765D+01    0.350535D+01   -0.219435D-01
   0    35    0.998929D-02    0.100628D+01   -0.417422D+01   -0.183880D-01
   0    36    0.102704D-01    0.100585D+01    0.340330D+01   -0.168346D-01
   0    37    0.107066D-01    0.100435D+01    0.594523D+01   -0.123243D-01
   0    38    0.112550D-01    0.100435D+01    0.301505D+01   -0.130903D-01
   0    39    0.118861D-01    0.100202D+01   -0.299219D+01   -0.526086D-02
   0    40    0.126906D-01    0.999650D+00   -0.231825D+01    0.592569D-03
   0    41    0.137483D-01    0.997608D+00   -0.164511D+01    0.660351D-02
   0    42    0.143499D-01    0.994556D+00    0.751244D+01    0.153554D-01
   0    43    0.157521D-01    0.991936D+00    0.695953D+01    0.236265D-01
   0    44    0.169389D-01    0.986135D+00    0.920681D+01    0.397493D-01
   0    45    0.197607D-01    0.977210D+00   -0.571570D+01    0.644041D-01
   0    46    0.222664D-01    0.964634D+00   -0.151917D+00    0.980727D-01
   0    47    0.250430D-01    0.942913D+00    0.813688D+01    0.148363D+00
   0    48    0.264355D-01    0.911210D+00   -0.127633D+01    0.208114D+00
   0    49    0.245508D-01    0.864861D+00    0.875247D+01    0.267537D+00
   0    50    0.184018D-01    0.795992D+00    0.102295D+02    0.319756D+00
   0    51    0.113525D-01    0.705683D+00    0.371121D+01    0.356325D+00
   0    52    0.560236D-02    0.600862D+00    0.131351D+01    0.379761D+00
   0    53    0.250077D-02    0.492703D+00    0.169115D+01    0.394303D+00
   0    54    0.100311D-02    0.390956D+00    0.110645D+01    0.403415D+00
   0    55    0.370232D-03    0.301624D+00    0.174616D+00    0.409280D+00
   0    56    0.125561D-03    0.226999D+00    0.134936D+00    0.413160D+00
   0    57    0.421269D-04    0.167202D+00    0.460841D-01    0.415775D+00
   0    58    0.140421D-04    0.120863D+00    0.106350D-01    0.417561D+00
   0    59    0.458003D-05    0.859341D-01    0.261632D-02    0.418788D+00
   0    60    0.141212D-05    0.602189D-01    0.880904D-03    0.419634D+00
   0    61    0.426227D-06    0.416648D-01    0.460000D-03    0.420217D+00
   0    62    0.127942D-06    0.285083D-01    0.754394D-04    0.420617D+00
   0    63    0.383215D-07    0.193179D-01    0.730186D-05    0.420890D+00
   0    64    0.110667D-07    0.129804D-01    0.360324D-05    0.421075D+00
   0    65    0.332480D-08    0.865849D-02    0.338668D-05    0.421200D+00
   0    66    0.932486D-09    0.573920D-02    0.106095D-05    0.421284D+00
   0    67    0.272269D-09    0.378344D-02    0.301958D-06    0.421340D+00
   0    68    0.836336D-10    0.248239D-02    0.673445D-07    0.421377D+00
   0    69    0.263988D-10    0.162208D-02    0.214968D-07    0.421401D+00
   0    70    0.770825D-11    0.105615D-02    0.667095D-08    0.421417D+00
   0    71    0.230947D-11    0.685536D-03    0.180439D-08    0.421428D+00
   0    72    0.687874D-12    0.443755D-03    0.260469D-09    0.421434D+00
   0    73    0.210060D-12    0.286549D-03    0.117414D-09    0.421439D+00
   0    74    0.597739D-13    0.184629D-03    0.149280D-10    0.421442D+00
   0    75    0.168557D-13    0.118722D-03    0.187946D-10    0.421444D+00
   0    76    0.479670D-14    0.761996D-04    0.145542D-11    0.421445D+00
   0    77    0.131143D-14    0.488208D-04    0.996159D-12    0.421446D+00
   0    78    0.372814D-15    0.312259D-04    0.297080D-12    0.421446D+00
   0    79    0.101787D-15    0.199386D-04    0.495377D-13    0.421446D+00
   0    80    0.265015D-16    0.127099D-04    0.243639D-13    0.421447D+00
   0    81    0.712448D-17    0.808810D-05    0.667053D-14    0.421447D+00
   0    82    0.192173D-17    0.513796D-05    0.640811D-15    0.421447D+00
   0    83    0.503326D-18    0.325797D-05    0.691441D-15    0.421447D+00
   0    84    0.132723D-18    0.206198D-05    0.172970D-15    0.421447D+00
   0    85    0.347077D-19    0.130247D-05    0.396426D-16    0.421447D+00
   0    86    0.915554D-20    0.821021D-06    0.108118D-16    0.421447D+00
   0    87    0.242511D-20    0.516424D-06    0.323730D-17    0.421447D+00
   0    88    0.595047D-21    0.324101D-06    0.760096D-18    0.421447D+00
   0    89    0.158020D-21    0.202924D-06    0.210299D-18    0.421447D+00
   0    90    0.401563D-22    0.126743D-06    0.466953D-19    0.421447D+00
   0    91    0.101016D-22    0.789601D-07    0.848418D-20    0.421447D+00
   0    92    0.253247D-23    0.490619D-07    0.158683D-20    0.421447D+00
   0    93    0.653730D-24    0.304014D-07    0.194334D-21    0.421447D+00
   0    94    0.157659D-24    0.187852D-07    0.128221D-21    0.421447D+00
   0    95    0.393191D-25    0.115738D-07    0.293515D-22    0.421447D+00
   0    96    0.995126D-26    0.710949D-08    0.113921D-22    0.421447D+00
   0    97    0.244903D-26    0.435382D-08    0.270618D-23    0.421447D+00
   0    98    0.604130D-27    0.265790D-08    0.801889D-24    0.421447D+00
   0    99    0.151119D-27    0.161740D-08    0.629861D-25    0.421447D+00
   0   100    0.369039D-28    0.981013D-09    0.131515D-25    0.421447D+00
   0   101    0.913400D-29    0.593046D-09    0.116871D-25    0.421447D+00
   0   102    0.222996D-29    0.357300D-09    0.273592D-26    0.421447D+00
   0   103    0.541865D-30    0.214529D-09    0.605567D-27    0.421447D+00
   0   104    0.134061D-30    0.128360D-09    0.801476D-28    0.421447D+00
   0   105    0.322975D-31    0.765317D-10    0.194802D-28    0.421447D+00
   0   106    0.813937D-32    0.454679D-10    0.343221D-29    0.421447D+00
   0   107    0.204951D-32    0.269157D-10    0.116075D-29    0.421447D+00
   0   108    0.517077D-33    0.158754D-10    0.475764D-30    0.421447D+00
   0   109    0.121667D-33    0.932941D-11    0.874789D-31    0.421447D+00
   0   110    0.296816D-34    0.546232D-11    0.182417D-31    0.421447D+00
   0   111    0.733060D-35    0.318628D-11    0.763337D-32    0.421447D+00
   0   112    0.177422D-35    0.185167D-11    0.205445D-32    0.421447D+00
   0   113    0.427399D-36    0.107203D-11    0.624440D-33    0.421447D+00
   0   114    0.102985D-36    0.618309D-12    0.113204D-33    0.421447D+00
   0   115    0.254491D-37    0.355265D-12    0.151250D-34    0.421447D+00
   0   116    0.624844D-38    0.203347D-12    0.826996D-35    0.421447D+00
   0   117    0.149508D-38    0.115947D-12    0.203616D-35    0.421447D+00
   0   118    0.355442D-39    0.658579D-13    0.434792D-36    0.421447D+00
   0   119    0.854364D-40    0.372632D-13    0.404268D-37    0.421447D+00
   0   120    0.201337D-40    0.210025D-13    0.140447D-37    0.421447D+00
   0   121    0.476269D-41    0.117917D-13    0.668719D-38    0.421447D+00
   0   122    0.117197D-41    0.659468D-14    0.530607D-39    0.421447D+00
   0   123    0.275237D-42    0.367383D-14    0.284168D-39    0.421447D+00
   0   124    0.652277D-43    0.203868D-14    0.226839D-40    0.421447D+00
   0   125    0.155421D-43    0.112689D-14    0.751327D-41    0.421447D+00
   0   126    0.373644D-44    0.620466D-15    0.470462D-41    0.421447D+00
   0   127    0.880382D-45    0.340293D-15    0.413348D-42    0.421447D+00
   0   128    0.209910D-45    0.185903D-15    0.151209D-42    0.421447D+00
   0   129    0.489251D-46    0.101162D-15    0.692845D-43    0.421447D+00
   0   130    0.116629D-46    0.548330D-16    0.886338D-44    0.421447D+00
   0   131    0.267692D-47    0.296050D-16    0.251934D-44    0.421447D+00
   0   132    0.615235D-48    0.159215D-16    0.907143D-45    0.421447D+00
   0   133    0.149174D-48    0.852896D-17    0.119514D-45    0.421447D+00
   0   134    0.349201D-49    0.455099D-17    0.409768D-46    0.421447D+00
   0   135    0.819160D-50    0.241886D-17    0.608420D-47    0.421447D+00
   0   136    0.189609D-50    0.128060D-17    0.840715D-48    0.421447D+00
   0   137    0.435131D-51    0.675321D-18    0.227219D-48    0.421447D+00
   0   138    0.100680D-51    0.354736D-18    0.122699D-48    0.421447D+00
   0   139    0.236302D-52    0.185609D-18    0.822262D-50    0.421447D+00
   0   140    0.532356D-53    0.967372D-19    0.599087D-50    0.421447D+00
   0   141    0.118417D-53    0.502213D-19    0.117541D-50    0.421447D+00
   0   142    0.270653D-54    0.259707D-19    0.333535D-51    0.421447D+00
   0   143    0.612533D-55    0.133777D-19    0.627523D-52    0.421447D+00
   0   144    0.139391D-55    0.686414D-20    0.165589D-52    0.421447D+00
   0   145    0.307823D-56    0.350829D-20    0.435154D-53    0.421447D+00
   0   146    0.696230D-57    0.178613D-20    0.409985D-54    0.421447D+00
   0   147    0.156885D-57    0.905815D-21    0.163363D-54    0.421447D+00
   0   148    0.352177D-58    0.457590D-21    0.148054D-55    0.421447D+00
   0   149    0.792531D-59    0.230265D-21    0.677488D-56    0.421447D+00
   0   150    0.177760D-59    0.115423D-21    0.806227D-57    0.421447D+00
   0   151    0.386818D-60    0.576333D-22    0.275108D-57    0.421447D+00
   0   152    0.868353D-61    0.286665D-22    0.912517D-58    0.421447D+00
   0   153    0.192968D-61    0.142035D-22    0.154164D-58    0.421447D+00
   0   154    0.425481D-62    0.701034D-23    0.685076D-59    0.421447D+00
   0   155    0.932757D-63    0.344674D-23    0.497262D-60    0.421447D+00
   0   156    0.195192D-63    0.168812D-23    0.286769D-60    0.421447D+00
   0   157    0.427052D-64    0.823626D-24    0.362894D-61    0.421447D+00
   0   158    0.887986D-65    0.400302D-24    0.711064D-62    0.421447D+00
   0   159    0.190616D-65    0.193811D-24    0.228682D-62    0.421447D+00
   0   160    0.400486D-66    0.934776D-25    0.380509D-63    0.421447D+00
   0   161    0.839984D-67    0.449132D-25    0.124769D-63    0.421447D+00
   0   162    0.177377D-67    0.214972D-25    0.217891D-64    0.421447D+00
   0   163    0.384615D-68    0.102503D-25    0.448541D-65    0.421447D+00
   0   164    0.794045D-69    0.486893D-26    0.799113D-66    0.421447D+00
   0   165    0.166606D-69    0.230399D-26    0.242872D-66    0.421447D+00
   0   166    0.348898D-70    0.108612D-26    0.506796D-67    0.421447D+00
   0   167    0.705447D-71    0.510073D-27    0.118118D-67    0.421447D+00
   0   168    0.145573D-71    0.238639D-27    0.942800D-69    0.421447D+00
   0   169    0.309332D-72    0.111227D-27    0.162200D-69    0.421447D+00
   0   170    0.621028D-73    0.516466D-28    0.681171D-70    0.421447D+00
   0   171    0.129111D-73    0.238911D-28    0.215849D-70    0.421447D+00
   0   172    0.252568D-74    0.110103D-28    0.326400D-71    0.421447D+00
   0   173    0.507847D-75    0.505513D-29    0.642961D-72    0.421447D+00
   0   174    0.102800D-75    0.231227D-29    0.152722D-72    0.421447D+00
   0   175    0.206111D-76    0.105370D-29    0.140105D-73    0.421447D+00
   0   176    0.410288D-77    0.478386D-30    0.636027D-74    0.421447D+00
   0   177    0.811833D-78    0.216381D-30    0.871626D-75    0.421447D+00
   0   178    0.161908D-78    0.975086D-31    0.175821D-75    0.421447D+00
   0   179    0.315476D-79    0.437778D-31    0.556679D-76    0.421447D+00
   0   180    0.617364D-80    0.195819D-31    0.626824D-77    0.421447D+00
   0   181    0.120871D-80    0.872665D-32    0.112419D-77    0.421447D+00
   0   182    0.231995D-81    0.387468D-32    0.420739D-78    0.421447D+00
   0   183    0.450056D-82    0.171405D-32    0.330186D-79    0.421447D+00
   0   184    0.856306D-83    0.755457D-33    0.137125D-79    0.421447D+00
   0   185    0.162893D-83    0.331743D-33    0.245647D-80    0.421447D+00
   0   186    0.316519D-84    0.145144D-33    0.521623D-81    0.421447D+00
   0   187    0.600031D-85    0.632714D-34    0.751570D-82    0.421447D+00
   0   188    0.112280D-85    0.274807D-34    0.100781D-82    0.421447D+00
   0   189    0.211245D-86    0.118922D-34    0.212692D-83    0.421447D+00
   0   190    0.396137D-87    0.512765D-35    0.504641D-84    0.421447D+00
   0   191    0.768682D-88    0.220290D-35    0.920039D-85    0.421447D+00
   0   192    0.139185D-88    0.942964D-36    0.207857D-85    0.421447D+00
   0   193    0.260003D-89    0.402182D-36    0.285904D-86    0.421447D+00
   0   194    0.477288D-90    0.170915D-36    0.713735D-87    0.421447D+00
   0   195    0.869700D-91    0.723723D-37    0.782708D-88    0.421447D+00
   0   196    0.158895D-91    0.305351D-37    0.174042D-88    0.421447D+00
   0   197    0.294821D-92    0.128371D-37    0.558406D-89    0.421447D+00
   0   198    0.529475D-93    0.537744D-38    0.500054D-90    0.421447D+00
   0   199    0.924519D-94    0.224455D-38    0.104008D-90    0.421447D+00
   0   200    0.162894D-94    0.933539D-39    0.337861D-91    0.421447D+00
   0   201    0.294683D-95    0.386889D-39    0.320032D-92    0.421447D+00
   0   202    0.531456D-96    0.159770D-39    0.102774D-92    0.421447D+00
   0   203    0.926349D-97    0.657444D-40    0.151459D-93    0.421447D+00
   0   204    0.162875D-97    0.269578D-40    0.205910D-94    0.421447D+00
   0   205    0.287021D-98    0.110147D-40    0.531965D-95    0.421447D+00
   0   206    0.489119D-99    0.448463D-41    0.563150D-96    0.421447D+00
   0   207    0.839377-100    0.181949D-41    0.186183D-96    0.421447D+00
   0   208    0.145305-100    0.735609D-42    0.165943D-97    0.421447D+00
   0   209    0.251332-101    0.296359D-42    0.385020D-98    0.421447D+00
   0   210    0.427606-102    0.118978D-42    0.766979D-99    0.421447D+00
   0   211    0.739861-103    0.475991D-43    0.134660D-99    0.421447D+00
   0   212    0.122271-103    0.189764D-43    0.202774-100    0.421447D+00
   0   213    0.208678-104    0.753903D-44    0.401217-101    0.421447D+00
   0   214    0.354435-105    0.298475D-44    0.558187-102    0.421447D+00
   0   215    0.578458-106    0.117759D-44    0.846460-103    0.421447D+00
   0   216    0.950080-107    0.462995D-45    0.124825-103    0.421447D+00
   0   217    0.157041-107    0.181409D-45    0.244360-104    0.421447D+00
   0   218    0.256803-108    0.708341D-46    0.373480-105    0.421447D+00
   0   219    0.432410-109    0.275633D-46    0.684329-106    0.421447D+00
   0   220    0.691919-110    0.106888D-46    0.884014-107    0.421447D+00
   0   221    0.112843-110    0.413084D-47    0.164100-107    0.421447D+00
   0   222    0.180029-111    0.159097D-47    0.276665-108    0.421447D+00
   0   223    0.283033-112    0.610666D-48    0.456356-109    0.421447D+00
   0   224    0.460951-113    0.233596D-48    0.609535-110    0.421447D+00
   0   225    0.751234-114    0.890533D-49    0.140216-110    0.421447D+00
   0   226    0.120164-114    0.338346D-49    0.189986-111    0.421447D+00
   0   227    0.192751-115    0.128116D-49    0.392336-112    0.421447D+00
   0   228    0.302433-116    0.483477D-50    0.738162-113    0.421447D+00
   0   229    0.492579-117    0.181838D-50    0.105611-113    0.421447D+00
   0   230    0.769522-118    0.681604D-51    0.104579-114    0.421447D+00
   0   231    0.119160-118    0.254637D-51    0.272985-115    0.421447D+00
   0   232    0.187951-119    0.948099D-52    0.413906-116    0.421447D+00
   0   233    0.287431-120    0.351831D-52    0.722674-117    0.421447D+00
   0   234    0.443519-121    0.130126D-52    0.108228-117    0.421447D+00
   0   235    0.684300-122    0.479678D-53    0.103490-118    0.421447D+00
   0   236    0.102730-122    0.176234D-53    0.258888-119    0.421447D+00
   0   237    0.156868-123    0.645343D-54    0.240380-120    0.421447D+00
   0   238    0.231784-124    0.235534D-54    0.485734-121    0.421447D+00
   0   239    0.348358-125    0.856803D-55    0.601553-122    0.421447D+00
   0   240    0.519193-126    0.310654D-55    0.973103-123    0.421447D+00
   0   241    0.760663-127    0.112265D-55    0.127182-123    0.421447D+00
   0   242    0.117714-127    0.404376D-56    0.287511-124    0.421447D+00
   0   243    0.169414-128    0.145179D-56    0.396177-125    0.421447D+00
   0   244    0.248773-129    0.519520D-57    0.587226-126    0.421447D+00
   0   245    0.368236-130    0.185304D-57    0.806522-127    0.421447D+00
   0   246    0.543009-131    0.658796D-58    0.135393-127    0.421447D+00
   0   247    0.787274-132    0.233457D-58    0.170802-128    0.421447D+00
   0   248    0.115662-132    0.824624D-59    0.190117-129    0.421447D+00
   0   249    0.168120-133    0.290334D-59    0.266783-130    0.421447D+00
   0   250    0.241048-134    0.101892D-59    0.537320-131    0.421447D+00
   0   251    0.346662-135    0.356435D-60    0.936968-132    0.421447D+00
   0   252    0.484458-136    0.124287D-60    0.893652-133    0.421447D+00
   0   253    0.698397-137    0.431992D-61    0.182132-133    0.421447D+00
   0   254    0.996026-138    0.149671D-61    0.263742-134    0.421447D+00
   0   255    0.139019-138    0.516903D-62    0.269397-135    0.421447D+00
   0   256    0.193761-139    0.177949D-62    0.372336-136    0.421447D+00
   0   257    0.270979-140    0.610664D-63    0.548119-137    0.421447D+00
   0   258    0.381737-141    0.208895D-63    0.838460-138    0.421447D+00
   0   259    0.535992-142    0.712326D-64    0.104183-138    0.421447D+00
   0   260    0.751513-143    0.242134D-64    0.129993-139    0.421447D+00
   0   261    0.105937-143    0.820469D-65    0.224517-140    0.421447D+00
   0   262    0.144084-144    0.277141D-65    0.346621-141    0.421447D+00
   0   263    0.196534-145    0.933200D-66    0.440489-142    0.421447D+00
   0   264    0.272599-146    0.313247D-66    0.663690-143    0.421447D+00
   0   265    0.363984-147    0.104819D-66    0.860811-144    0.421447D+00
   0   266    0.479870-148    0.349652D-67    0.124808-144    0.421447D+00
   0   267    0.649897-149    0.116273D-67    0.115520-145    0.421447D+00
   0   268    0.862380-150    0.385453D-68    0.261115-146    0.421447D+00
   0   269    0.117195-150    0.127384D-68    0.296472-147    0.421447D+00
   0   270    0.155221-151    0.419678D-69    0.316230-148    0.421447D+00
   0   271    0.209332-152    0.137839D-69    0.452214-149    0.421447D+00
   0   272    0.280013-153    0.451327D-70    0.696243-150    0.421447D+00
   0   273    0.371221-154    0.147324D-70    0.996458-151    0.421447D+00
   0   274    0.492033-155    0.479425D-71    0.122295-151    0.421447D+00
   0   275    0.637434-156    0.155539D-71    0.145245-152    0.421447D+00
   0   276    0.802870-157    0.503068D-72    0.212798-153    0.421447D+00
   0   277    0.107297-157    0.162215D-72    0.213404-154    0.421447D+00
   0   278    0.138198-158    0.521471D-73    0.385305-155    0.421447D+00
   0   279    0.179144-159    0.167129D-73    0.352730-156    0.421447D+00
   0   280    0.225738-160    0.534017D-74    0.700657-157    0.421447D+00
   0   281    0.296919-161    0.170115D-74    0.553322-158    0.421447D+00
   0   282    0.374376-162    0.540283D-75    0.825561-159    0.421447D+00
   0   283    0.478034-163    0.171076D-75    0.129624-159    0.421447D+00
   0   284    0.602593-164    0.540073D-76    0.121413-160    0.421447D+00
   0   285    0.742934-165    0.169985D-76    0.167076-161    0.421447D+00
   0   286    0.919706-166    0.533420D-77    0.276186-162    0.421447D+00
   0   287    0.118622-166    0.166890D-77    0.320629-163    0.421447D+00
   0   288    0.149083-167    0.520588D-78    0.310873-164    0.421447D+00
   0   289    0.188743-168    0.161907D-78    0.431393-165    0.421447D+00
   0   290    0.234756-169    0.502051D-79    0.630988-166    0.421447D+00
   0   291    0.290853-170    0.155218D-79    0.617528-167    0.421447D+00
   0   292    0.352174-171    0.478468D-80    0.923298-168    0.421447D+00
   0   293    0.428026-172    0.147056D-80    0.979760-169    0.421447D+00
   0   294    0.520988-173    0.450641D-81    0.147713-169    0.421447D+00
   0   295    0.643243-174    0.137690D-81    0.201531-170    0.421447D+00
   0   296    0.768055-175    0.419470D-82    0.215809-171    0.421447D+00
   0   297    0.943742-176    0.127417D-82    0.220857-172    0.421447D+00
   0   298    0.112885-176    0.385911D-83    0.309079-173    0.421447D+00
   0   299    0.132266-177    0.116541D-83    0.370674-174    0.421447D+00
   0   300    0.157031-178    0.350920D-84    0.443347-175    0.421447D+00
   0   301    0.192971-179    0.105360D-84    0.450563-176    0.421447D+00
   0   302    0.225146-180    0.315418D-85    0.593919-177    0.421447D+00
   0   303    0.269605-181    0.941544D-86    0.740674-178    0.421447D+00
   0   304    0.317413-182    0.280248D-86    0.804957-179    0.421447D+00
   0   305    0.366795-183    0.831750D-87    0.998939-180    0.421447D+00
   0   306    0.427718-184    0.246148D-87    0.100283-180    0.421447D+00
   0   307    0.501870-185    0.726362D-88    0.168812-181    0.421447D+00
   0   308    0.584310-186    0.213731D-88    0.167701-182    0.421447D+00
   0   309    0.694737-187    0.627109D-89    0.199488-183    0.421447D+00
   0   310    0.789133-188    0.183476D-89    0.255897-184    0.421447D+00
   0   311    0.910918-189    0.535282D-90    0.277006-185    0.421447D+00
   0   312    0.105615-189    0.155723D-90    0.296788-186    0.421447D+00
   0   313    0.122080-190    0.451744D-91    0.354875-187    0.421447D+00
   0   314    0.139449-191    0.130679D-91    0.444113-188    0.421447D+00
   0   315    0.157150-192    0.376957D-92    0.559264-189    0.421447D+00
   0   316    0.175555-193    0.108432D-92    0.480977-190    0.421447D+00
   0   317    0.199031-194    0.311030D-93    0.518074-191    0.421447D+00
   0   318    0.224372-195    0.889671D-94    0.742846-192    0.421447D+00
   0   319    0.252681-196    0.253771D-94    0.865452-193    0.421447D+00
   0   320    0.284448-197    0.721842D-95    0.976796-194    0.421447D+00
   0   321    0.320979-198    0.204754D-95    0.858851-195    0.421447D+00
   0   322    0.359112-199    0.579182D-96    0.937471-196    0.421447D+00
   0   323    0.400033-200    0.163378D-96    0.144206-196    0.421447D+00
   0   324    0.441003-201    0.459587D-97    0.138655-197    0.421447D+00
   0   325    0.481941-202    0.128927D-97    0.151525-198    0.421447D+00
   0   326    0.527892-203    0.360678D-98    0.172719-199    0.421447D+00
   0   327    0.572267-204    0.100624D-98    0.169493-200    0.421447D+00
   0   328    0.628417-205    0.279957D-99    0.186651-201    0.421447D+00
   0   329    0.693879-206    0.776765-100    0.221969-202    0.421447D+00
   0   330    0.750315-207    0.214932-100    0.276150-203    0.421447D+00
   0   331    0.817237-208    0.593097-101    0.262355-204    0.421447D+00
   0   332    0.878915-209    0.163218-101    0.280701-205    0.421447D+00
   0   333    0.944131-210    0.447949-102    0.313214-206    0.421447D+00
   0   334    0.100243-210    0.122606-102    0.372946-207    0.421447D+00
   0   335    0.106137-211    0.334671-103    0.364422-208    0.421447D+00
   0   336    0.112399-212    0.911067-104    0.341116-209    0.421447D+00
   0   337    0.120385-213    0.247350-104    0.353359-210    0.421447D+00
   0   338    0.127443-214    0.669738-105    0.389577-211    0.421447D+00
   0   339    0.136664-215    0.180855-105    0.379892-212    0.421447D+00
   0   340    0.142369-216    0.487071-106    0.477800-213    0.421447D+00
   0   341    0.147391-217    0.130825-106    0.440241-214    0.421447D+00
   0   342    0.150794-218    0.350455-107    0.491505-215    0.421447D+00
   0   343    0.154242-219    0.936300-108    0.517953-216    0.421447D+00
   0   344    0.159210-220    0.249484-108    0.496755-217    0.421447D+00
   0   345    0.162633-221    0.663007-109    0.582221-218    0.421447D+00
   0   346    0.169845-222    0.175729-109    0.483563-219    0.421447D+00
   0   347    0.175587-223    0.464537-110    0.556282-220    0.421447D+00
   0   348    0.183931-224    0.122476-110    0.675026-221    0.421447D+00
   0   349    0.187512-225    0.322061-111    0.674284-222    0.421447D+00
   0   350    0.189522-226    0.844665-112    0.765808-223    0.421447D+00
   0   351    0.195050-227    0.220949-112    0.641334-224    0.421447D+00
   0   352    0.200175-228    0.576451-113    0.694285-225    0.421447D+00
   0   353    0.201754-229    0.150003-113    0.763277-226    0.421447D+00
   0   354    0.204536-230    0.389316-114    0.766728-227    0.421447D+00
   0   355    0.206802-231    0.100781-114    0.724008-228    0.421447D+00
   0   356    0.209043-232    0.260209-115    0.632093-229    0.421447D+00
   0   357    0.204722-233    0.670106-116    0.842083-230    0.421447D+00
   0   358    0.201998-234    0.172124-116    0.760109-231    0.421447D+00
   0   359    0.200434-235    0.440978-117    0.715322-232    0.421447D+00
   0   360    0.203334-236    0.112687-117    0.725517-233    0.421447D+00
   0   361    0.200616-237    0.287220-118    0.645562-234    0.421447D+00
   0   362    0.196641-238    0.730198-119    0.771311-235    0.421447D+00
   0   363    0.195235-239    0.185163-119    0.780335-236    0.421447D+00
   0   364    0.193359-240    0.468337-120    0.768759-237    0.421447D+00
   0   365    0.186843-241    0.118156-120    0.675857-238    0.421447D+00
   0   366    0.182131-242    0.297334-121    0.676272-239    0.421447D+00
   0   367    0.177393-243    0.746328-122    0.701194-240    0.421447D+00
   0   368    0.168994-244    0.186859-122    0.685173-241    0.421447D+00
   0   369    0.160906-245    0.466659-123    0.636920-242    0.421447D+00
   0   370    0.154664-246    0.116249-123    0.608713-243    0.421447D+00
   0   371    0.149857-247    0.288856-124    0.535547-244    0.421447D+00
   0   372    0.143856-248    0.715947-125    0.626029-245    0.421447D+00
   0   373    0.136177-249    0.177007-125    0.505476-246    0.421447D+00
   0   374    0.130516-250    0.436526-126    0.489989-247    0.421447D+00
   0   375    0.123058-251    0.107385-126    0.458608-248    0.421447D+00
   0   376    0.115735-252    0.263508-127    0.490231-249    0.421447D+00
   0   377    0.111445-253    0.645000-128    0.471568-250    0.421447D+00
   0   378    0.104275-254    0.157487-128    0.420269-251    0.421447D+00
   0   379    0.980848-256    0.383578-129    0.385689-252    0.421447D+00
   0   380    0.916130-257    0.931935-130    0.353842-253    0.421447D+00
   0   381    0.859060-258    0.225862-130    0.340233-254    0.421447D+00
   0   382    0.803538-259    0.546045-131    0.328180-255    0.421447D+00
   0   383    0.733491-260    0.131687-131    0.304785-256    0.421447D+00
   0   384    0.673842-261    0.316804-132    0.284208-257    0.421447D+00
   0   385    0.613418-262    0.760277-133    0.239023-258    0.421447D+00
   0   386    0.558270-263    0.182007-133    0.213090-259    0.421447D+00
   0   387    0.519119-264    0.434655-134    0.216374-260    0.421447D+00
   0   388    0.478047-265    0.103548-134    0.204860-261    0.421447D+00
   0   389    0.436484-266    0.246081-135    0.159039-262    0.421447D+00
   0   390    0.394352-267    0.583390-136    0.138334-263    0.421447D+00
   0   391    0.363418-268    0.137971-136    0.155661-264    0.421447D+00
   0   392    0.332220-269    0.325508-137    0.123195-265    0.421447D+00
   0   393    0.303515-270    0.766105-138    0.114105-266    0.421447D+00
   0   394    0.268574-271    0.179873-138    0.123002-267    0.421447D+00
   0   395    0.237953-272    0.421306-139    0.983548-269    0.421447D+00
   0   396    0.212574-273    0.984423-140    0.900772-270    0.421447D+00
   0   397    0.195957-274    0.229438-140    0.866971-271    0.421447D+00