variables =  "IG"  "JG"  "PHI"  "Temp."  "Latent_heat"  "mm"
ZONE  I=  401  J=  101
   0     0    0.100000D+01    0.863037D+00    0.000000D+00    0.269334D+00
   0     1    0.100000D+01    0.863037D+00    0.000000D+00    0.269334D+00
   0     2    0.100000D+01    0.863409D+00    0.000000D+00    0.268962D+00
   0     3    0.100000D+01    0.864154D+00    0.000000D+00    0.268215D+00
   0     4    0.100000D+01    0.865267D+00    0.000000D+00    0.267088D+00
   0     5    0.100000D+01    0.866744D+00    0.000000D+00    0.265574D+00
   0     6    0.100000D+01    0.868580D+00    0.000000D+00    0.263663D+00
   0     7    0.100000D+01    0.870768D+00    0.000000D+00    0.261340D+00
   0     8    0.100000D+01    0.873299D+00    0.000000D+00    0.258591D+00
   0     9    0.100000D+01    0.876164D+00    0.000000D+00    0.255396D+00
   0    10    0.100000D+01    0.879352D+00    0.000000D+00    0.251734D+00
   0    11    0.100000D+01    0.882852D+00    0.000000D+00    0.247580D+00
   0    12    0.100000D+01    0.886650D+00    0.000000D+00    0.242907D+00
   0    13    0.100000D+01    0.890732D+00    0.000000D+00    0.237682D+00
   0    14    0.100000D+01    0.895085D+00    0.000000D+00    0.231873D+00
   0    15    0.100000D+01    0.899693D+00    0.000000D+00    0.225442D+00
   0    16    0.100000D+01    0.904541D+00    0.000000D+00    0.218349D+00
   0    17    0.100000D+01    0.909613D+00    0.133227D-10    0.210551D+00
   0    18    0.100000D+01    0.914893D+00    0.666134D-10    0.202003D+00
   0    19    0.100000D+01    0.920367D+00   -0.226485D-09    0.192659D+00
   0    20    0.100000D+01    0.926022D+00    0.203837D-08    0.182467D+00
   0    21    0.100000D+01    0.931848D+00    0.330802D-07    0.171377D+00
   0    22    0.100000D+01    0.937838D+00    0.931122D-07    0.159330D+00
   0    23    0.100000D+01    0.943992D+00    0.112812D-05    0.146261D+00
   0    24    0.100000D+01    0.950320D+00   -0.905809D-07    0.132091D+00
   0    25    0.100000D+01    0.956845D+00    0.967656D-04    0.116714D+00
   0    26    0.999999D+00    0.963609D+00    0.551277D-03    0.999856D-01
   0    27    0.999991D+00    0.970684D+00    0.141637D-02    0.816959D-01
   0    28    0.999940D+00    0.978182D+00    0.293440D-01    0.615389D-01
   0    29    0.999608D+00    0.986278D+00    0.238240D+00    0.390616D-01
   0    30    0.997581D+00    0.995240D+00   -0.685227D+00    0.136002D-01
   0    31    0.984542D+00    0.100581D+01   -0.158691D+01   -0.165300D-01
   0    32    0.911061D+00    0.101854D+01    0.553089D+02   -0.531863D-01
   0    33    0.583074D+00    0.103124D+01    0.109919D+03   -0.837836D-01
   0    34    0.138169D+00    0.103301D+01   -0.316359D+02   -0.918821D-01
   0    35    0.333504D-01    0.102491D+01   -0.135448D+02   -0.687695D-01
   0    36    0.129141D-01    0.101948D+01   -0.123385D+01   -0.549308D-01
   0    37    0.869820D-02    0.101586D+01   -0.191365D+01   -0.446630D-01
   0    38    0.844609D-02    0.101290D+01   -0.412985D+01   -0.365427D-01
   0    39    0.924803D-02    0.101096D+01    0.359531D+01   -0.314765D-01
   0    40    0.983257D-02    0.100896D+01    0.266378D+01   -0.254293D-01
   0    41    0.101945D-01    0.100815D+01    0.130084D+01   -0.229681D-01
   0    42    0.105364D-01    0.100703D+01   -0.416971D+01   -0.205848D-01
   0    43    0.110099D-01    0.100619D+01   -0.561124D+01   -0.174693D-01
   0    44    0.107244D-01    0.100458D+01    0.586752D+01   -0.127427D-01
   0    45    0.108705D-01    0.100487D+01    0.537972D+00   -0.138717D-01
   0    46    0.113208D-01    0.100507D+01   -0.382562D+01   -0.149819D-01
   0    47    0.113847D-01    0.100365D+01    0.359548D+01   -0.104063D-01
   0    48    0.117978D-01    0.100463D+01    0.154034D+01   -0.137856D-01
   0    49    0.118438D-01    0.100341D+01   -0.138084D+00   -0.101729D-01
   0    50    0.117570D-01    0.100398D+01    0.170870D+01   -0.112977D-01
   0    51    0.119504D-01    0.100362D+01    0.600822D+01   -0.102130D-01
   0    52    0.122681D-01    0.100261D+01    0.256926D+01   -0.770021D-02
   0    53    0.128007D-01    0.100160D+01   -0.599773D+01   -0.443987D-02
   0    54    0.126210D-01    0.100081D+01    0.335386D+01   -0.200472D-02
   0    55    0.130584D-01    0.999762D+00    0.523304D+01    0.956214D-03
   0    56    0.133902D-01    0.999272D+00   -0.527451D+01    0.149597D-02
   0    57    0.133937D-01    0.999530D+00    0.320126D+01    0.197667D-02
   0    58    0.136589D-01    0.999111D+00    0.713879D+00    0.268748D-02
   0    59    0.138658D-01    0.998906D+00   -0.148041D+01    0.279337D-02
   0    60    0.140422D-01    0.998812D+00    0.626326D+01    0.312429D-02
   0    61    0.139576D-01    0.999032D+00    0.528528D+01    0.241840D-02
   0    62    0.136744D-01    0.998788D+00    0.446633D+01    0.322126D-02
   0    63    0.136896D-01    0.998333D+00    0.426691D+01    0.509789D-02
   0    64    0.140480D-01    0.998384D+00    0.777560D+01    0.400395D-02
   0    65    0.142117D-01    0.998463D+00    0.375341D+01    0.492720D-02
   0    66    0.141607D-01    0.996871D+00    0.763306D+00    0.841663D-02
   0    67    0.144002D-01    0.997524D+00   -0.800421D+01    0.706533D-02
   0    68    0.145468D-01    0.997283D+00    0.652747D+01    0.780631D-02
   0    69    0.143942D-01    0.998673D+00    0.406136D+01    0.422458D-02
   0    70    0.143185D-01    0.998050D+00   -0.398565D+01    0.581249D-02
   0    71    0.141221D-01    0.997469D+00    0.289143D+01    0.724305D-02
   0    72    0.143045D-01    0.997953D+00   -0.226146D+01    0.623643D-02
   0    73    0.145252D-01    0.997895D+00   -0.464150D+01    0.536527D-02
   0    74    0.143343D-01    0.998392D+00    0.341593D+01    0.384432D-02
   0    75    0.143023D-01    0.998282D+00    0.156813D+01    0.449740D-02
   0    76    0.148090D-01    0.997194D+00    0.550772D+01    0.791632D-02
   0    77    0.144395D-01    0.997925D+00   -0.283279D+01    0.542096D-02
   0    78    0.145572D-01    0.997813D+00    0.412854D+01    0.649347D-02
   0    79    0.144201D-01    0.998292D+00   -0.333705D+01    0.488315D-02
   0    80    0.145956D-01    0.999099D+00   -0.512745D+01    0.300529D-02
   0    81    0.143295D-01    0.999035D+00    0.819237D+01    0.209625D-02
   0    82    0.142380D-01    0.998641D+00   -0.513762D+01    0.338449D-02
   0    83    0.141225D-01    0.997631D+00   -0.720126D+00    0.634519D-02
   0    84    0.143308D-01    0.996996D+00   -0.623435D+01    0.926529D-02
   0    85    0.146063D-01    0.997298D+00   -0.212389D+01    0.714184D-02
   0    86    0.142822D-01    0.997262D+00    0.281264D+01    0.728987D-02
   0    87    0.146297D-01    0.996565D+00   -0.136631D+01    0.969389D-02
   0    88    0.145074D-01    0.997945D+00   -0.131056D+01    0.640002D-02
   0    89    0.143021D-01    0.997610D+00    0.174561D+01    0.640820D-02
   0    90    0.141932D-01    0.997466D+00   -0.764976D+01    0.711638D-02
   0    91    0.146077D-01    0.997550D+00    0.633636D+01    0.698134D-02
   0    92    0.147536D-01    0.997258D+00    0.631700D+01    0.730991D-02
   0    93    0.145271D-01    0.996732D+00    0.709192D+01    0.935480D-02
   0    94    0.145313D-01    0.997850D+00   -0.533843D+01    0.642265D-02
   0    95    0.146529D-01    0.998290D+00   -0.254466D+00    0.542039D-02
   0    96    0.146199D-01    0.997493D+00    0.572630D+01    0.670191D-02
   0    97    0.142501D-01    0.997091D+00   -0.297890D+01    0.793308D-02
   0    98    0.146204D-01    0.997306D+00   -0.749528D+01    0.825372D-02
   0    99    0.146555D-01    0.998107D+00    0.403504D+01    0.595658D-02
   0   100    0.142366D-01    0.998513D+00    0.855332D+01    0.350557D-02
   0   101    0.148055D-01    0.998651D+00    0.702595D+01    0.433216D-02
   0   102    0.146008D-01    0.998003D+00   -0.763213D+01    0.615332D-02
   0   103    0.141941D-01    0.997009D+00    0.879355D+00    0.834949D-02
   0   104    0.143969D-01    0.997944D+00    0.199662D+00    0.562729D-02
   0   105    0.141665D-01    0.996901D+00    0.496786D+00    0.850009D-02
   0   106    0.144998D-01    0.998095D+00    0.495107D+01    0.584100D-02
   0   107    0.144533D-01    0.997524D+00    0.603741D+01    0.644067D-02
   0   108    0.146066D-01    0.998029D+00    0.884930D+01    0.619994D-02
   0   109    0.148094D-01    0.997280D+00    0.331531D+01    0.732288D-02
   0   110    0.144881D-01    0.996205D+00   -0.741307D+01    0.107557D-01
   0   111    0.144753D-01    0.997008D+00   -0.679321D+01    0.794494D-02
   0   112    0.146231D-01    0.997167D+00   -0.410462D+01    0.827087D-02
   0   113    0.148656D-01    0.997117D+00   -0.613333D+01    0.777066D-02
   0   114    0.147395D-01    0.997669D+00    0.305033D+01    0.698714D-02
   0   115    0.149665D-01    0.997277D+00    0.875316D+01    0.790175D-02
   0   116    0.147317D-01    0.997040D+00   -0.994085D-01    0.848993D-02
   0   117    0.143393D-01    0.998360D+00    0.939752D+01    0.469122D-02
   0   118    0.143280D-01    0.998380D+00   -0.613351D+00    0.451990D-02
   0   119    0.147575D-01    0.998291D+00    0.179275D+01    0.442927D-02
   0   120    0.147089D-01    0.997947D+00   -0.692143D+01    0.576666D-02
   0   121    0.144774D-01    0.996734D+00   -0.804566D+01    0.967554D-02
   0   122    0.141472D-01    0.996565D+00   -0.153529D+01    0.949723D-02
   0   123    0.145342D-01    0.998474D+00    0.806420D+01    0.422153D-02
   0   124    0.143120D-01    0.997079D+00    0.297146D+01    0.890102D-02
   0   125    0.144329D-01    0.997522D+00   -0.180288D+01    0.692346D-02
   0   126    0.144296D-01    0.998560D+00    0.641151D+01    0.363104D-02
   0   127    0.144029D-01    0.998320D+00    0.518576D+00    0.536266D-02
   0   128    0.144063D-01    0.998271D+00    0.715315D+01    0.474455D-02
   0   129    0.146371D-01    0.998151D+00    0.693965D+01    0.490394D-02
   0   130    0.145916D-01    0.998551D+00   -0.549610D+01    0.384068D-02
   0   131    0.139101D-01    0.999365D+00    0.267527D+01    0.194565D-02
   0   132    0.143457D-01    0.998877D+00    0.124082D+01    0.327534D-02
   0   133    0.145518D-01    0.997581D+00   -0.349340D+01    0.654936D-02
   0   134    0.145299D-01    0.997459D+00   -0.759450D+01    0.798720D-02
   0   135    0.144755D-01    0.996498D+00   -0.462089D+00    0.960815D-02
   0   136    0.142362D-01    0.996753D+00   -0.761597D+01    0.949745D-02
   0   137    0.143811D-01    0.997475D+00    0.275619D+01    0.739744D-02
   0   138    0.143620D-01    0.998277D+00    0.303874D+01    0.557419D-02
   0   139    0.144223D-01    0.998392D+00    0.724662D+01    0.453452D-02
   0   140    0.143738D-01    0.999253D+00    0.228919D+01    0.252236D-02
   0   141    0.141675D-01    0.998516D+00    0.822329D+01    0.427625D-02
   0   142    0.144877D-01    0.998038D+00   -0.693573D+01    0.509478D-02
   0   143    0.142808D-01    0.998112D+00    0.238243D+01    0.562002D-02
   0   144    0.145424D-01    0.998960D+00   -0.803655D+01    0.357486D-02
   0   145    0.141140D-01    0.998565D+00   -0.543733D+01    0.385685D-02
   0   146    0.144633D-01    0.999198D+00    0.386461D+01    0.277353D-02
   0   147    0.148610D-01    0.997953D+00    0.677136D+01    0.597109D-02
   0   148    0.152629D-01    0.997788D+00    0.340364D+01    0.570398D-02
   0   149    0.148732D-01    0.997235D+00    0.488084D+01    0.731350D-02
   0   150    0.150422D-01    0.994532D+00    0.418202D+00    0.157141D-01
   0   151    0.157659D-01    0.993708D+00    0.980270D+00    0.184734D-01
   0   152    0.159907D-01    0.994764D+00    0.775635D+01    0.151763D-01
   0   153    0.165413D-01    0.993282D+00    0.739319D+01    0.189478D-01
   0   154    0.173438D-01    0.992566D+00   -0.834507D+01    0.204272D-01
   0   155    0.179547D-01    0.989669D+00    0.387275D+01    0.302909D-01
   0   156    0.194455D-01    0.983674D+00   -0.127982D+02    0.463266D-01
   0   157    0.215634D-01    0.974186D+00   -0.171469D+01    0.730237D-01
   0   158    0.252785D-01    0.958959D+00    0.115677D+02    0.112358D+00
   0   159    0.281670D-01    0.934786D+00   -0.774387D+01    0.165400D+00
   0   160    0.287036D-01    0.897618D+00    0.656783D+00    0.228395D+00
   0   161    0.248389D-01    0.840320D+00    0.807708D+01    0.290199D+00
   0   162    0.159104D-01    0.756967D+00    0.553199D+01    0.338355D+00
   0   163    0.825055D-02    0.654533D+00    0.116383D+01    0.369394D+00
   0   164    0.388553D-02    0.543933D+00    0.210746D+01    0.388233D+00
   0   165    0.152986D-02    0.436490D+00    0.830051D+00    0.399732D+00
   0   166    0.591291D-03    0.339654D+00    0.279102D-01    0.406973D+00
   0   167    0.210881D-03    0.257483D+00    0.249531D+00    0.411668D+00
   0   168    0.728910D-04    0.190813D+00    0.119302D-02    0.414788D+00
   0   169    0.233375D-04    0.138650D+00    0.286941D-01    0.416898D+00
   0   170    0.757476D-05    0.990285D-01    0.268074D-02    0.418339D+00
   0   171    0.232040D-05    0.696725D-01    0.150356D-02    0.419329D+00
   0   172    0.720866D-06    0.483768D-01    0.637102D-03    0.420009D+00
   0   173    0.222886D-06    0.332053D-01    0.987219D-04    0.420475D+00
   0   174    0.677225D-07    0.225636D-01    0.842346D-04    0.420794D+00
   0   175    0.190837D-07    0.151986D-01    0.492675D-05    0.421010D+00
   0   176    0.559866D-08    0.101598D-01    0.399537D-05    0.421157D+00
   0   177    0.163229D-08    0.674643D-02    0.436003D-06    0.421255D+00
   0   178    0.462826D-09    0.445395D-02    0.269030D-06    0.421320D+00
   0   179    0.140873D-09    0.292563D-02    0.682135D-07    0.421364D+00
   0   180    0.448442D-10    0.191327D-02    0.434137D-08    0.421393D+00
   0   181    0.133992D-10    0.124639D-02    0.112717D-07    0.421412D+00
   0   182    0.405565D-11    0.809220D-03    0.538383D-08    0.421424D+00
   0   183    0.124682D-11    0.523834D-03    0.125656D-08    0.421432D+00
   0   184    0.352592D-12    0.338216D-03    0.662034D-10    0.421437D+00
   0   185    0.100528D-12    0.217874D-03    0.998765D-10    0.421441D+00
   0   186    0.287660D-13    0.140072D-03    0.125867D-10    0.421443D+00
   0   187    0.817946D-14    0.898951D-04    0.871969D-11    0.421444D+00
   0   188    0.232641D-14    0.576040D-04    0.292547D-11    0.421445D+00
   0   189    0.633691D-15    0.368622D-04    0.774307D-12    0.421446D+00
   0   190    0.171254D-15    0.235610D-04    0.114875D-12    0.421446D+00
   0   191    0.478251D-16    0.150436D-04    0.512814D-13    0.421447D+00
   0   192    0.125414D-16    0.959649D-05    0.132887D-13    0.421447D+00
   0   193    0.332756D-17    0.611674D-05    0.450741D-14    0.421447D+00
   0   194    0.895147D-18    0.389599D-05    0.269521D-15    0.421447D+00
   0   195    0.233537D-18    0.247995D-05    0.300154D-15    0.421447D+00
   0   196    0.606121D-19    0.157770D-05    0.492163D-16    0.421447D+00
   0   197    0.158615D-19    0.100321D-05    0.606199D-17    0.421447D+00
   0   198    0.413575D-20    0.637631D-06    0.218037D-17    0.421447D+00
   0   199    0.101724D-20    0.405115D-06    0.129730D-17    0.421447D+00
   0   200    0.264846D-21    0.257297D-06    0.177320D-18    0.421447D+00
   0   201    0.683274D-22    0.163364D-06    0.950965D-19    0.421447D+00
   0   202    0.171844D-22    0.103695D-06    0.208219D-19    0.421447D+00
   0   203    0.439378D-23    0.658035D-07    0.142622D-20    0.421447D+00
   0   204    0.108963D-23    0.417485D-07    0.498071D-21    0.421447D+00
   0   205    0.271825D-24    0.264816D-07    0.207911D-21    0.421447D+00
   0   206    0.668607D-25    0.167944D-07    0.805418D-22    0.421447D+00
   0   207    0.164986D-25    0.106490D-07    0.190807D-22    0.421447D+00
   0   208    0.414080D-26    0.675131D-08    0.351116D-23    0.421447D+00
   0   209    0.100640D-26    0.427960D-08    0.318311D-24    0.421447D+00
   0   210    0.252129D-27    0.271244D-08    0.303391D-24    0.421447D+00
   0   211    0.635427D-28    0.171894D-08    0.396177D-25    0.421447D+00
   0   212    0.156380D-28    0.108922D-08    0.481027D-26    0.421447D+00
   0   213    0.377773D-29    0.690113D-09    0.183838D-26    0.421447D+00
   0   214    0.932540D-30    0.437202D-09    0.896051D-27    0.421447D+00
   0   215    0.223865D-30    0.276951D-09    0.147215D-27    0.421447D+00
   0   216    0.559611D-31    0.175422D-09    0.641871D-28    0.421447D+00
   0   217    0.133185D-31    0.111104D-09    0.414766D-29    0.421447D+00
   0   218    0.318191D-32    0.703625D-10    0.249749D-29    0.421447D+00
   0   219    0.766966D-33    0.445573D-10    0.760725D-30    0.421447D+00
   0   220    0.188709D-33    0.282141D-10    0.250891D-30    0.421447D+00
   0   221    0.454465D-34    0.178642D-10    0.217107D-31    0.421447D+00
   0   222    0.114032D-34    0.113102D-10    0.698324D-32    0.421447D+00
   0   223    0.285176D-35    0.716031D-11    0.724372D-33    0.421447D+00
   0   224    0.676307D-36    0.453280D-11    0.605158D-33    0.421447D+00
   0   225    0.162228D-36    0.286930D-11    0.568758D-34    0.421447D+00
   0   226    0.385263D-37    0.181618D-11    0.196638D-34    0.421447D+00
   0   227    0.907323D-38    0.114953D-11    0.835535D-35    0.421447D+00
   0   228    0.219933D-38    0.727542D-12    0.190126D-35    0.421447D+00
   0   229    0.525554D-39    0.460440D-12    0.513325D-36    0.421447D+00
   0   230    0.124372D-39    0.291385D-12    0.102574D-36    0.421447D+00
   0   231    0.305829D-40    0.184391D-12    0.273992D-37    0.421447D+00
   0   232    0.733686D-41    0.116679D-12    0.224741D-38    0.421447D+00
   0   233    0.179232D-41    0.738290D-13    0.115271D-38    0.421447D+00
   0   234    0.431870D-42    0.467134D-13    0.324576D-39    0.421447D+00
   0   235    0.100280D-42    0.295554D-13    0.912256D-40    0.421447D+00
   0   236    0.242301D-43    0.186989D-13    0.326577D-40    0.421447D+00
   0   237    0.583314D-44    0.118298D-13    0.646374D-41    0.421447D+00
   0   238    0.137656D-44    0.748378D-14    0.589594D-42    0.421447D+00
   0   239    0.327163D-45    0.473423D-14    0.454174D-42    0.421447D+00
   0   240    0.787836D-46    0.299476D-14    0.245371D-43    0.421447D+00
   0   241    0.186551D-46    0.189435D-14    0.249963D-43    0.421447D+00
   0   242    0.438154D-47    0.119824D-14    0.586479D-44    0.421447D+00
   0   243    0.105050D-47    0.757903D-15    0.891287D-45    0.421447D+00
   0   244    0.246858D-48    0.479369D-15    0.291936D-45    0.421447D+00
   0   245    0.586377D-49    0.303189D-15    0.554233D-46    0.421447D+00
   0   246    0.140959D-49    0.191754D-15    0.599506D-47    0.421447D+00
   0   247    0.338943D-50    0.121273D-15    0.386819D-47    0.421447D+00
   0   248    0.800972D-51    0.766958D-16    0.800434D-48    0.421447D+00
   0   249    0.193932D-51    0.485030D-16    0.549174D-49    0.421447D+00
   0   250    0.458862D-52    0.306729D-16    0.412425D-49    0.421447D+00
   0   251    0.109910D-52    0.193968D-16    0.158382D-49    0.421447D+00
   0   252    0.257426D-53    0.122658D-16    0.345556D-50    0.421447D+00
   0   253    0.590403D-54    0.775623D-17    0.277175D-51    0.421447D+00
   0   254    0.142793D-54    0.490452D-17    0.184135D-51    0.421447D+00
   0   255    0.334337D-55    0.310122D-17    0.481554D-52    0.421447D+00
   0   256    0.800125D-56    0.196092D-17    0.992858D-53    0.421447D+00
   0   257    0.189227D-56    0.123987D-17    0.148870D-53    0.421447D+00
   0   258    0.445612D-57    0.783944D-18    0.639687D-54    0.421447D+00
   0   259    0.104142D-57    0.495659D-18    0.151953D-54    0.421447D+00
   0   260    0.250547D-58    0.313379D-18    0.169666D-55    0.421447D+00
   0   261    0.589397D-59    0.198129D-18    0.511390D-56    0.421447D+00
   0   262    0.138904D-59    0.125260D-18    0.152769D-56    0.421447D+00
   0   263    0.333679D-60    0.791897D-19    0.404008D-57    0.421447D+00
   0   264    0.781492D-61    0.500623D-19    0.614763D-58    0.421447D+00
   0   265    0.183864D-61    0.316475D-19    0.195265D-58    0.421447D+00
   0   266    0.447481D-62    0.200058D-19    0.426033D-59    0.421447D+00
   0   267    0.109421D-62    0.126460D-19    0.819655D-60    0.421447D+00
   0   268    0.256266D-63    0.799351D-20    0.333796D-60    0.421447D+00
   0   269    0.598427D-64    0.505245D-20    0.620454D-61    0.421447D+00
   0   270    0.139711D-64    0.319336D-20    0.122658D-61    0.421447D+00
   0   271    0.331649D-65    0.201823D-20    0.347647D-62    0.421447D+00
   0   272    0.764604D-66    0.127547D-20    0.765016D-63    0.421447D+00
   0   273    0.183396D-66    0.806018D-21    0.143396D-63    0.421447D+00
   0   274    0.439932D-67    0.509319D-21    0.537746D-64    0.421447D+00
   0   275    0.102113D-67    0.321814D-21    0.591254D-65    0.421447D+00
   0   276    0.247324D-68    0.203322D-21    0.121247D-65    0.421447D+00
   0   277    0.580526D-69    0.128448D-21    0.318128D-66    0.421447D+00
   0   278    0.135920D-69    0.811393D-22    0.100102D-66    0.421447D+00
   0   279    0.330600D-70    0.512495D-22    0.250650D-67    0.421447D+00
   0   280    0.782634D-71    0.323669D-22    0.958787D-68    0.421447D+00
   0   281    0.188790D-71    0.204390D-22    0.559826D-69    0.421447D+00
   0   282    0.440132D-72    0.129051D-22    0.278047D-69    0.421447D+00
   0   283    0.996912D-73    0.814711D-23    0.106667D-69    0.421447D+00
   0   284    0.239602D-73    0.514256D-23    0.339911D-70    0.421447D+00
   0   285    0.560795D-74    0.324552D-23    0.420716D-71    0.421447D+00
   0   286    0.134463D-74    0.204792D-23    0.841551D-72    0.421447D+00
   0   287    0.313508D-75    0.129199D-23    0.375479D-72    0.421447D+00
   0   288    0.715538D-76    0.814926D-24    0.611199D-73    0.421447D+00
   0   289    0.167336D-76    0.513906D-24    0.221898D-73    0.421447D+00
   0   290    0.387700D-77    0.324003D-24    0.535058D-74    0.421447D+00
   0   291    0.912478D-78    0.204225D-24    0.115287D-74    0.421447D+00
   0   292    0.214674D-78    0.128693D-24    0.133317D-75    0.421447D+00
   0   293    0.498563D-79    0.810736D-25    0.365836D-76    0.421447D+00
   0   294    0.119399D-79    0.510597D-25    0.113858D-76    0.421447D+00
   0   295    0.285189D-80    0.321472D-25    0.152056D-77    0.421447D+00
   0   296    0.695622D-81    0.202333D-25    0.193270D-78    0.421447D+00
   0   297    0.162612D-81    0.127303D-25    0.141390D-78    0.421447D+00
   0   298    0.383838D-82    0.800677D-26    0.244487D-79    0.421447D+00
   0   299    0.909800D-83    0.503396D-26    0.653075D-80    0.421447D+00
   0   300    0.215857D-83    0.316367D-26    0.304300D-80    0.421447D+00
   0   301    0.505201D-84    0.198743D-26    0.682842D-81    0.421447D+00
   0   302    0.118964D-84    0.124797D-26    0.158465D-81    0.421447D+00
   0   303    0.279928D-85    0.783285D-27    0.849041D-83    0.421447D+00
   0   304    0.655692D-86    0.491396D-27    0.189511D-83    0.421447D+00
   0   305    0.151905D-86    0.308128D-27    0.652089D-84    0.421447D+00
   0   306    0.359573D-87    0.193113D-27    0.140393D-84    0.421447D+00
   0   307    0.876779D-88    0.120966D-27    0.579821D-85    0.421447D+00
   0   308    0.203323D-88    0.757314D-28    0.979074D-86    0.421447D+00
   0   309    0.491778D-89    0.473856D-28    0.207495D-86    0.421447D+00
   0   310    0.115952D-89    0.296322D-28    0.125923D-86    0.421447D+00
   0   311    0.274701D-90    0.185191D-28    0.226720D-87    0.421447D+00
   0   312    0.658284D-91    0.115667D-28    0.894669D-88    0.421447D+00
   0   313    0.154969D-91    0.721974D-29    0.122972D-88    0.421447D+00
   0   314    0.359135D-92    0.450350D-29    0.205344D-89    0.421447D+00
   0   315    0.816512D-93    0.280729D-29    0.557620D-90    0.421447D+00
   0   316    0.196544D-93    0.174875D-29    0.580220D-91    0.421447D+00
   0   317    0.464751D-94    0.108858D-29    0.614250D-91    0.421447D+00
   0   318    0.110335D-94    0.677140D-30    0.102465D-91    0.421447D+00
   0   319    0.258732D-95    0.420898D-30    0.295677D-92    0.421447D+00
   0   320    0.617819D-96    0.261426D-30    0.228801D-93    0.421447D+00
   0   321    0.146166D-96    0.162250D-30    0.210426D-93    0.421447D+00
   0   322    0.346715D-97    0.100619D-30    0.134635D-94    0.421447D+00
   0   323    0.805370D-98    0.623489D-31    0.733366D-95    0.421447D+00
   0   324    0.193887D-98    0.386032D-31    0.173254D-95    0.421447D+00
   0   325    0.457343D-99    0.238812D-31    0.639964D-96    0.421447D+00
   0   326    0.107313D-99    0.147613D-31    0.797278D-97    0.421447D+00
   0   327    0.252330-100    0.911633D-32    0.139648D-97    0.421447D+00
   0   328    0.604226-101    0.562519D-32    0.215825D-98    0.421447D+00
   0   329    0.143484-101    0.346794D-32    0.161239D-98    0.421447D+00
   0   330    0.328306-102    0.213607D-32    0.368004D-99    0.421447D+00
   0   331    0.760315-103    0.131451D-32    0.646302-100    0.421447D+00
   0   332    0.180427-103    0.808194D-33    0.133184-100    0.421447D+00
   0   333    0.420922-104    0.496434D-33    0.425285-101    0.421447D+00
   0   334    0.100633-104    0.304647D-33    0.454311-102    0.421447D+00
   0   335    0.231243-105    0.186775D-33    0.100741-102    0.421447D+00
   0   336    0.554068-106    0.114399D-33    0.594693-103    0.421447D+00
   0   337    0.126893-106    0.700005D-34    0.449769-104    0.421447D+00
   0   338    0.302542-107    0.427911D-34    0.304254-104    0.421447D+00
   0   339    0.712424-108    0.261321D-34    0.287717-105    0.421447D+00
   0   340    0.162245-108    0.159426D-34    0.934629-106    0.421447D+00
   0   341    0.381065-109    0.971635D-35    0.359979-106    0.421447D+00
   0   342    0.893762-110    0.591568D-35    0.772509-107    0.421447D+00
   0   343    0.214023-110    0.359799D-35    0.176914-107    0.421447D+00
   0   344    0.511801-111    0.218607D-35    0.585012-108    0.421447D+00
   0   345    0.118556-111    0.132683D-35    0.118724-108    0.421447D+00
   0   346    0.283406-112    0.804466D-36    0.145255-109    0.421447D+00
   0   347    0.674188-113    0.487238D-36    0.810377-110    0.421447D+00
   0   348    0.156430-113    0.294789D-36    0.696674-111    0.421447D+00
   0   349    0.360405-114    0.178162D-36    0.147873-111    0.421447D+00
   0   350    0.842858-115    0.107560D-36    0.690501-112    0.421447D+00
   0   351    0.194020-115    0.648655D-37    0.730126-113    0.421447D+00
   0   352    0.458920-116    0.390754D-37    0.618414-113    0.421447D+00
   0   353    0.108635-116    0.235135D-37    0.106195-113    0.421447D+00
   0   354    0.256051-117    0.141335D-37    0.379352-114    0.421447D+00
   0   355    0.608250-118    0.848600D-38    0.334196-115    0.421447D+00
   0   356    0.139286-118    0.508946D-38    0.749164-116    0.421447D+00
   0   357    0.322611-119    0.304898D-38    0.249850-116    0.421447D+00
   0   358    0.755055-120    0.182453D-38    0.110259-116    0.421447D+00
   0   359    0.181033-120    0.109058D-38    0.238091-117    0.421447D+00
   0   360    0.412218-121    0.651134D-39    0.285860-118    0.421447D+00
   0   361    0.963381-122    0.388321D-39    0.759908-119    0.421447D+00
   0   362    0.221599-122    0.231322D-39    0.772994-120    0.421447D+00
   0   363    0.520641-123    0.137640D-39    0.688544-120    0.421447D+00
   0   364    0.121820-123    0.818043D-40    0.625014-121    0.421447D+00
   0   365    0.285521-124    0.485631D-40    0.148515-121    0.421447D+00
   0   366    0.681218-125    0.287962D-40    0.483687-122    0.421447D+00
   0   367    0.158415-125    0.170554D-40    0.916921-123    0.421447D+00
   0   368    0.376689-126    0.100898D-40    0.480577-123    0.421447D+00
   0   369    0.880822-127    0.596211D-41    0.118253-123    0.421447D+00
   0   370    0.207419-127    0.351892D-41    0.732178-125    0.421447D+00
   0   371    0.491093-128    0.207449D-41    0.726145-125    0.421447D+00
   0   372    0.119371-128    0.122153D-41    0.412584-126    0.421447D+00
   0   373    0.279684-129    0.718432D-42    0.295176-126    0.421447D+00
   0   374    0.667646-130    0.422043D-42    0.596191-127    0.421447D+00
   0   375    0.157179-130    0.247637D-42    0.531925-128    0.421447D+00
   0   376    0.380537-131    0.145131D-42    0.253771-128    0.421447D+00
   0   377    0.865814-132    0.849558D-43    0.132171-128    0.421447D+00
   0   378    0.201521-132    0.496718D-43    0.193076-129    0.421447D+00
   0   379    0.468561-133    0.290075D-43    0.456237-130    0.421447D+00
   0   380    0.113555-133    0.169198D-43    0.130047-130    0.421447D+00
   0   381    0.265345-134    0.985738D-44    0.942087-132    0.421447D+00
   0   382    0.635755-135    0.573601D-44    0.733879-132    0.421447D+00
   0   383    0.149248-135    0.333380D-44    0.557946-133    0.421447D+00
   0   384    0.349944-136    0.193531D-44    0.424009-133    0.421447D+00
   0   385    0.816545-137    0.112212D-44    0.376707-134    0.421447D+00
   0   386    0.186833-137    0.649847D-45    0.183402-134    0.421447D+00
   0   387    0.443642-138    0.375889D-45    0.369832-135    0.421447D+00
   0   388    0.102854-138    0.217163D-45    0.114452-135    0.421447D+00
   0   389    0.238447-139    0.125311D-45    0.129786-136    0.421447D+00
   0   390    0.555922-140    0.722217D-46    0.220301-137    0.421447D+00
   0   391    0.131092-140    0.415733D-46    0.159376-137    0.421447D+00
   0   392    0.302744-141    0.239009D-46    0.393911-138    0.421447D+00
   0   393    0.715711-142    0.137219D-46    0.304179-139    0.421447D+00
   0   394    0.168634-142    0.786436D-47    0.101595-139    0.421447D+00
   0   395    0.385280-143    0.449445D-47    0.345940-140    0.421447D+00
   0   396    0.913467-144    0.255246D-47    0.543746-141    0.421447D+00
   0   397    0.209436-144    0.142484D-47    0.164780-141    0.421447D+00