variables =  "IG"  "JG"  "PHI"  "Temp."  "Latent_heat"  "mm"
ZONE  I=  401  J=  101
   0     0    0.100000D+01    0.639758D+00    0.000000D+00    0.372434D+00
   0     1    0.100000D+01    0.639758D+00    0.000000D+00    0.372434D+00
   0     2    0.100000D+01    0.642268D+00    0.000000D+00    0.371917D+00
   0     3    0.100000D+01    0.647248D+00    0.000000D+00    0.370869D+00
   0     4    0.100000D+01    0.654618D+00    0.000000D+00    0.369267D+00
   0     5    0.100000D+01    0.664259D+00    0.000000D+00    0.367075D+00
   0     6    0.100000D+01    0.676020D+00    0.000000D+00    0.364238D+00
   0     7    0.100000D+01    0.689719D+00    0.000000D+00    0.360687D+00
   0     8    0.100000D+01    0.705149D+00    0.000000D+00    0.356331D+00
   0     9    0.100000D+01    0.722082D+00    0.000000D+00    0.351056D+00
   0    10    0.100000D+01    0.740278D+00    0.133227D-09    0.344713D+00
   0    11    0.100000D+01    0.759487D+00    0.426326D-09    0.337120D+00
   0    12    0.100000D+01    0.779461D+00   -0.635492D-08    0.328046D+00
   0    13    0.100000D+01    0.799956D+00   -0.203837D-08    0.317200D+00
   0    14    0.100000D+01    0.820741D+00    0.657461D-06    0.304223D+00
   0    15    0.100000D+01    0.841603D+00    0.610493D-05    0.288670D+00
   0    16    0.100000D+01    0.862360D+00    0.362280D-04    0.269995D+00
   0    17    0.999999D+00    0.882867D+00    0.332855D-03    0.247547D+00
   0    18    0.999994D+00    0.903044D+00   -0.898897D-03    0.220557D+00
   0    19    0.999952D+00    0.922903D+00    0.138254D-01    0.188133D+00
   0    20    0.999633D+00    0.942612D+00   -0.153886D+00    0.149225D+00
   0    21    0.997239D+00    0.962610D+00   -0.936240D+00    0.102457D+00
   0    22    0.981037D+00    0.984017D+00   -0.648147D+01    0.455727D-01
   0    23    0.879376D+00    0.100755D+01    0.288625D+02   -0.228114D-01
   0    24    0.438196D+00    0.103124D+01   -0.539026D+02   -0.888918D-01
   0    25    0.111410D+00    0.102579D+01    0.377050D+01   -0.723207D-01
   0    26    0.340667D-01    0.101906D+01   -0.161300D+02   -0.529493D-01
   0    27    0.158710D-01    0.101099D+01   -0.580945D+01   -0.306116D-01
   0    28    0.112531D-01    0.100638D+01    0.177798D+01   -0.177552D-01
   0    29    0.961159D-02    0.100420D+01    0.472821D+01   -0.122181D-01
   0    30    0.842783D-02    0.100129D+01    0.200522D+00   -0.381104D-02
   0    31    0.820496D-02    0.998368D+00    0.159025D+01    0.479842D-02
   0    32    0.865754D-02    0.993539D+00    0.145215D+01    0.185431D-01
   0    33    0.107389D-01    0.987368D+00   -0.190378D+00    0.365160D-01
   0    34    0.128411D-01    0.978377D+00   -0.563715D+01    0.613085D-01
   0    35    0.163967D-01    0.967102D+00   -0.151246D+00    0.914304D-01
   0    36    0.197418D-01    0.950318D+00    0.260565D+01    0.132414D+00
   0    37    0.230461D-01    0.927870D+00    0.136193D+02    0.179560D+00
   0    38    0.243986D-01    0.890586D+00    0.123289D+02    0.238164D+00
   0    39    0.215387D-01    0.837336D+00   -0.635270D+01    0.292354D+00
   0    40    0.150210D-01    0.761754D+00   -0.229492D+01    0.336320D+00
   0    41    0.860284D-02    0.667433D+00    0.639153D+01    0.366424D+00
   0    42    0.427779D-02    0.562927D+00    0.107628D+01    0.385644D+00
   0    43    0.181090D-02    0.458375D+00    0.207432D+01    0.397746D+00
   0    44    0.704200D-03    0.361898D+00    0.716470D+00    0.405499D+00
   0    45    0.252520D-03    0.278221D+00    0.100762D+00    0.410582D+00
   0    46    0.885626D-04    0.209038D+00    0.652037D-01    0.413986D+00
   0    47    0.296018D-04    0.153934D+00    0.321518D-01    0.416306D+00
   0    48    0.926793D-05    0.111370D+00    0.124671D-01    0.417904D+00
   0    49    0.298435D-05    0.793279D-01    0.902439D-03    0.419010D+00
   0    50    0.930109D-06    0.557318D-01    0.146356D-03    0.419777D+00
   0    51    0.284622D-06    0.386819D-01    0.315445D-03    0.420308D+00
   0    52    0.863372D-07    0.265629D-01    0.840743D-04    0.420675D+00
   0    53    0.257134D-07    0.180704D-01    0.110793D-04    0.420926D+00
   0    54    0.759621D-08    0.121919D-01    0.725746D-05    0.421098D+00
   0    55    0.217066D-08    0.816604D-02    0.289900D-05    0.421214D+00
   0    56    0.632052D-09    0.543427D-02    0.429045D-06    0.421292D+00
   0    57    0.194296D-09    0.359550D-02    0.208073D-06    0.421345D+00
   0    58    0.611364D-10    0.236650D-02    0.174139D-07    0.421380D+00
   0    59    0.187919D-10    0.155018D-02    0.189145D-07    0.421403D+00
   0    60    0.581764D-11    0.101096D-02    0.286661D-08    0.421418D+00
   0    61    0.178352D-11    0.656565D-03    0.194667D-09    0.421428D+00
   0    62    0.521765D-12    0.424722D-03    0.264246D-09    0.421435D+00
   0    63    0.158195D-12    0.273698D-03    0.122849D-09    0.421439D+00
   0    64    0.472850D-13    0.175718D-03    0.284939D-10    0.421442D+00
   0    65    0.137547D-13    0.112399D-03    0.667769D-11    0.421444D+00
   0    66    0.387747D-14    0.716337D-04    0.140522D-11    0.421445D+00
   0    67    0.110067D-14    0.454856D-04    0.390771D-12    0.421446D+00
   0    68    0.315924D-15    0.287754D-04    0.254282D-12    0.421446D+00
   0    69    0.865653D-16    0.181360D-04    0.201248D-13    0.421447D+00
   0    70    0.233405D-16    0.113869D-04    0.304082D-13    0.421447D+00
   0    71    0.625957D-17    0.712182D-05    0.440439D-14    0.421447D+00
   0    72    0.168282D-17    0.443676D-05    0.123588D-14    0.421447D+00
   0    73    0.451532D-18    0.275296D-05    0.211090D-15    0.421447D+00
   0    74    0.119776D-18    0.170123D-05    0.377416D-16    0.421447D+00
   0    75    0.311720D-19    0.104694D-05    0.181168D-16    0.421447D+00
   0    76    0.805001D-20    0.641578D-06    0.412442D-17    0.421447D+00
   0    77    0.210386D-20    0.391485D-06    0.134868D-17    0.421447D+00
   0    78    0.558545D-21    0.237844D-06    0.198205D-18    0.421447D+00
   0    79    0.141895D-21    0.143865D-06    0.187842D-18    0.421447D+00
   0    80    0.376129D-22    0.866318D-07    0.203329D-19    0.421447D+00
   0    81    0.966729D-23    0.519324D-07    0.388165D-20    0.421447D+00
   0    82    0.247568D-23    0.309896D-07    0.207754D-20    0.421447D+00
   0    83    0.626227D-24    0.184073D-07    0.547472D-21    0.421447D+00
   0    84    0.160539D-24    0.108829D-07    0.655420D-22    0.421447D+00
   0    85    0.396681D-25    0.640415D-08    0.401633D-22    0.421447D+00
   0    86    0.985649D-26    0.375082D-08    0.474782D-23    0.421447D+00
   0    87    0.247596D-26    0.218638D-08    0.903633D-24    0.421447D+00
   0    88    0.611385D-27    0.126838D-08    0.813796D-24    0.421447D+00
   0    89    0.153017D-27    0.732288D-09    0.116648D-24    0.421447D+00
   0    90    0.384389D-28    0.420744D-09    0.511011D-25    0.421447D+00
   0    91    0.938012D-29    0.240573D-09    0.548838D-26    0.421447D+00
   0    92    0.230297D-29    0.136886D-09    0.736971D-27    0.421447D+00
   0    93    0.571690D-30    0.775091D-10    0.728698D-27    0.421447D+00
   0    94    0.134470D-30    0.436735D-10    0.183328D-27    0.421447D+00
   0    95    0.330250D-31    0.244878D-10    0.860936D-29    0.421447D+00
   0    96    0.803573D-32    0.136630D-10    0.428385D-29    0.421447D+00
   0    97    0.191577D-32    0.758579D-11    0.132284D-29    0.421447D+00
   0    98    0.443644D-33    0.419094D-11    0.401934D-30    0.421447D+00
   0    99    0.107055D-33    0.230397D-11    0.120974D-30    0.421447D+00
   0   100    0.257724D-34    0.126035D-11    0.780204D-32    0.421447D+00
   0   101    0.613702D-35    0.686053D-12    0.850056D-32    0.421447D+00
   0   102    0.146310D-35    0.371597D-12    0.174085D-32    0.421447D+00
   0   103    0.354894D-36    0.200279D-12    0.425054D-33    0.421447D+00
   0   104    0.828174D-37    0.107410D-12    0.630008D-34    0.421447D+00
   0   105    0.189049D-37    0.573195D-13    0.175560D-34    0.421447D+00
   0   106    0.434693D-38    0.304374D-13    0.305915D-35    0.421447D+00
   0   107    0.100687D-38    0.160828D-13    0.131839D-35    0.421447D+00
   0   108    0.232835D-39    0.845600D-14    0.334158D-36    0.421447D+00
   0   109    0.536784D-40    0.442403D-14    0.562633D-37    0.421447D+00
   0   110    0.122702D-40    0.230315D-14    0.179995D-37    0.421447D+00
   0   111    0.279440D-41    0.119311D-14    0.285317D-38    0.421447D+00
   0   112    0.622837D-42    0.615027D-15    0.615915D-39    0.421447D+00
   0   113    0.145867D-42    0.315474D-15    0.778880D-40    0.421447D+00
   0   114    0.326388D-43    0.161025D-15    0.366536D-40    0.421447D+00
   0   115    0.733631D-44    0.817867D-16    0.499645D-41    0.421447D+00
   0   116    0.164621D-44    0.413367D-16    0.721579D-42    0.421447D+00
   0   117    0.370555D-45    0.207901D-16    0.549328D-42    0.421447D+00
   0   118    0.827191D-46    0.104050D-16    0.916837D-43    0.421447D+00
   0   119    0.177472D-46    0.518208D-17    0.154454D-43    0.421447D+00
   0   120    0.399518D-47    0.256826D-17    0.595065D-44    0.421447D+00
   0   121    0.848576D-48    0.126663D-17    0.720960D-45    0.421447D+00
   0   122    0.178148D-48    0.621646D-18    0.290621D-45    0.421447D+00
   0   123    0.379304D-49    0.303612D-18    0.529035D-46    0.421447D+00
   0   124    0.811029D-50    0.147565D-18    0.132765D-46    0.421447D+00
   0   125    0.174016D-50    0.713735D-19    0.145769D-47    0.421447D+00
   0   126    0.375717D-51    0.343546D-19    0.342180D-48    0.421447D+00
   0   127    0.817915D-52    0.164562D-19    0.823906D-49    0.421447D+00
   0   128    0.168039D-52    0.784471D-20    0.201764D-49    0.421447D+00
   0   129    0.350583D-53    0.372159D-20    0.448218D-50    0.421447D+00
   0   130    0.724999D-54    0.175707D-20    0.723786D-51    0.421447D+00
   0   131    0.147554D-54    0.825584D-21    0.145469D-51    0.421447D+00
   0   132    0.299444D-55    0.386056D-21    0.488840D-52    0.421447D+00
   0   133    0.622301D-56    0.179663D-21    0.779096D-53    0.421447D+00
   0   134    0.127586D-56    0.832131D-22    0.190535D-53    0.421447D+00
   0   135    0.269725D-57    0.383577D-22    0.313236D-54    0.421447D+00
   0   136    0.540621D-58    0.175973D-22    0.974465D-55    0.421447D+00
   0   137    0.107081D-58    0.803481D-23    0.132467D-55    0.421447D+00
   0   138    0.214180D-59    0.365128D-23    0.203237D-56    0.421447D+00
   0   139    0.419403D-60    0.165143D-23    0.763449D-57    0.421447D+00
   0   140    0.843583D-61    0.743402D-24    0.145453D-57    0.421447D+00
   0   141    0.165404D-61    0.333073D-24    0.314614D-58    0.421447D+00
   0   142    0.327643D-62    0.148530D-24    0.510692D-59    0.421447D+00
   0   143    0.633928D-63    0.659248D-25    0.105429D-59    0.421447D+00
   0   144    0.121077D-63    0.291239D-25    0.126942D-60    0.421447D+00
   0   145    0.233797D-64    0.128062D-25    0.320880D-61    0.421447D+00
   0   146    0.446654D-65    0.560490D-26    0.359526D-62    0.421447D+00
   0   147    0.847971D-66    0.244171D-26    0.105681D-62    0.421447D+00
   0   148    0.158436D-66    0.105877D-26    0.217200D-63    0.421447D+00
   0   149    0.303278D-67    0.456983D-27    0.482301D-64    0.421447D+00
   0   150    0.564421D-68    0.196331D-27    0.641765D-65    0.421447D+00
   0   151    0.103182D-68    0.839607D-28    0.179664D-65    0.421447D+00
   0   152    0.189201D-69    0.357408D-28    0.297918D-66    0.421447D+00
   0   153    0.352617D-70    0.151446D-28    0.396635D-67    0.421447D+00
   0   154    0.637086D-71    0.638797D-29    0.792410D-68    0.421447D+00
   0   155    0.115269D-71    0.268215D-29    0.220770D-68    0.421447D+00
   0   156    0.206259D-72    0.112104D-29    0.386665D-69    0.421447D+00
   0   157    0.368980D-73    0.466430D-30    0.356932D-70    0.421447D+00
   0   158    0.652088D-74    0.193188D-30    0.938346D-71    0.421447D+00
   0   159    0.112937D-74    0.796538D-31    0.131533D-71    0.421447D+00
   0   160    0.196484D-75    0.326942D-31    0.398682D-72    0.421447D+00
   0   161    0.351860D-76    0.133591D-31    0.332257D-73    0.421447D+00
   0   162    0.624729D-77    0.543417D-32    0.696256D-74    0.421447D+00
   0   163    0.105518D-77    0.220060D-32    0.151592D-74    0.421447D+00
   0   164    0.183400D-78    0.887165D-33    0.265657D-75    0.421447D+00
   0   165    0.315843D-79    0.356065D-33    0.489070D-76    0.421447D+00
   0   166    0.530391D-80    0.142273D-33    0.967643D-77    0.421447D+00
   0   167    0.880558D-81    0.565957D-34    0.144859D-77    0.421447D+00
   0   168    0.148049D-81    0.224141D-34    0.196399D-78    0.421447D+00
   0   169    0.253614D-82    0.883769D-35    0.484794D-79    0.421447D+00
   0   170    0.425083D-83    0.346930D-35    0.796922D-80    0.421447D+00
   0   171    0.707613D-84    0.135592D-35    0.128694D-80    0.421447D+00
   0   172    0.114707D-84    0.527618D-36    0.153147D-81    0.421447D+00
   0   173    0.187515D-85    0.204411D-36    0.366338D-82    0.421447D+00
   0   174    0.311598D-86    0.788486D-37    0.350293D-83    0.421447D+00
   0   175    0.502187D-87    0.302824D-37    0.106673D-83    0.421447D+00
   0   176    0.811504D-88    0.115798D-37    0.181849D-84    0.421447D+00
   0   177    0.129318D-88    0.440889D-38    0.253649D-85    0.421447D+00
   0   178    0.196957D-89    0.167139D-38    0.455218D-86    0.421447D+00
   0   179    0.317170D-90    0.630894D-39    0.475505D-87    0.421447D+00
   0   180    0.506949D-91    0.237118D-39    0.759160D-88    0.421447D+00
   0   181    0.787125D-92    0.887382D-40    0.157267D-88    0.421447D+00
   0   182    0.124447D-92    0.330672D-40    0.155458D-89    0.421447D+00
   0   183    0.195855D-93    0.122696D-40    0.292938D-90    0.421447D+00
   0   184    0.291544D-94    0.453329D-41    0.459036D-91    0.421447D+00
   0   185    0.455723D-95    0.166783D-41    0.108611D-91    0.421447D+00
   0   186    0.682483D-96    0.611012D-42    0.159222D-92    0.421447D+00
   0   187    0.103533D-96    0.222901D-42    0.164813D-93    0.421447D+00
   0   188    0.158414D-97    0.809738D-43    0.376072D-94    0.421447D+00
   0   189    0.238295D-98    0.292921D-43    0.529083D-95    0.421447D+00
   0   190    0.356963D-99    0.105520D-43    0.586694D-96    0.421447D+00
   0   191    0.511660-100    0.378532D-44    0.128457D-96    0.421447D+00
   0   192    0.771160-101    0.135225D-44    0.147665D-97    0.421447D+00
   0   193    0.112485-101    0.481068D-45    0.195008D-98    0.421447D+00
   0   194    0.163700-102    0.170432D-45    0.422852D-99    0.421447D+00
   0   195    0.236116-103    0.601311D-46    0.617491-100    0.421447D+00
   0   196    0.343388-104    0.211277D-46    0.616983-101    0.421447D+00
   0   197    0.488235-105    0.739295D-47    0.917086-102    0.421447D+00
   0   198    0.701102-106    0.257631D-47    0.126963-102    0.421447D+00
   0   199    0.100735-106    0.894126D-48    0.264016-103    0.421447D+00
   0   200    0.141722-107    0.309047D-48    0.258273-104    0.421447D+00
   0   201    0.199720-108    0.106385D-48    0.400970-105    0.421447D+00
   0   202    0.279310-109    0.364728D-49    0.605557-106    0.421447D+00
   0   203    0.386031-110    0.124536D-49    0.949332-107    0.421447D+00
   0   204    0.535955-111    0.423514D-50    0.147252-107    0.421447D+00
   0   205    0.736283-112    0.143445D-50    0.214034-108    0.421447D+00
   0   206    0.104623-112    0.483902D-51    0.251387-109    0.421447D+00
   0   207    0.141875-113    0.162587D-51    0.265552-110    0.421447D+00
   0   208    0.195309-114    0.544094D-52    0.494843-111    0.421447D+00
   0   209    0.260668-115    0.181355D-52    0.499569-112    0.421447D+00
   0   210    0.339331-116    0.602081D-53    0.662762-113    0.421447D+00
   0   211    0.466996-117    0.199093D-53    0.100883-113    0.421447D+00
   0   212    0.625479-118    0.655746D-54    0.140830-114    0.421447D+00
   0   213    0.836814-119    0.215129D-54    0.240235-115    0.421447D+00
   0   214    0.111795-119    0.702994D-55    0.201575-116    0.421447D+00
   0   215    0.146090-120    0.228821D-55    0.308663-117    0.421447D+00
   0   216    0.193295-121    0.741889D-56    0.518833-118    0.421447D+00
   0   217    0.256026-122    0.239598D-56    0.748460-119    0.421447D+00
   0   218    0.333533-123    0.770785D-57    0.859158-120    0.421447D+00
   0   219    0.424414-124    0.246998D-57    0.107590-120    0.421447D+00
   0   220    0.545737-125    0.788442D-58    0.162048-121    0.421447D+00
   0   221    0.693141-126    0.250706D-58    0.212667-122    0.421447D+00
   0   222    0.890612-127    0.794116D-59    0.272128-123    0.421447D+00
   0   223    0.113694-127    0.250571D-59    0.268148-124    0.421447D+00
   0   224    0.143267-128    0.787609D-60    0.378326-125    0.421447D+00
   0   225    0.180308-129    0.246619D-60    0.522207-126    0.421447D+00
   0   226    0.221913-130    0.769281D-61    0.505653-127    0.421447D+00
   0   227    0.280078-131    0.239050D-61    0.794955-128    0.421447D+00
   0   228    0.343841-132    0.740017D-62    0.837557-129    0.421447D+00
   0   229    0.423068-133    0.228217D-62    0.115392-129    0.421447D+00
   0   230    0.517049-134    0.701156D-63    0.120173-130    0.421447D+00
   0   231    0.635217-135    0.214607D-63    0.161156-131    0.421447D+00
   0   232    0.753778-136    0.654393D-64    0.184741-132    0.421447D+00
   0   233    0.912548-137    0.198795D-64    0.248740-133    0.421447D+00
   0   234    0.105816-137    0.601655D-65    0.272178-134    0.421447D+00
   0   235    0.131965-138    0.181414D-65    0.293438-135    0.421447D+00
   0   236    0.156031-139    0.544974D-66    0.367232-136    0.421447D+00
   0   237    0.182472-140    0.163106D-66    0.464456-137    0.421447D+00
   0   238    0.215700-141    0.486358D-67    0.682773-138    0.421447D+00
   0   239    0.253990-142    0.144491D-67    0.626127-139    0.421447D+00
   0   240    0.299924-143    0.427684D-68    0.877714-140    0.421447D+00
   0   241    0.354525-144    0.126128D-68    0.103276-140    0.421447D+00
   0   242    0.414437-145    0.370603D-69    0.144038-141    0.421447D+00
   0   243    0.481536-146    0.108498D-69    0.126020-142    0.421447D+00
   0   244    0.557401-147    0.316481D-70    0.145681-143    0.421447D+00
   0   245    0.628528-148    0.919808D-71    0.191623-144    0.421447D+00
   0   246    0.720955-149    0.266362D-71    0.202579-145    0.421447D+00
   0   247    0.807640-150    0.768557D-72    0.212860-146    0.421447D+00
   0   248    0.943273-151    0.220960D-72    0.252527-147    0.421447D+00
   0   249    0.107482-151    0.632978D-73    0.297305-148    0.421447D+00
   0   250    0.120055-152    0.180678D-73    0.423167-149    0.421447D+00
   0   251    0.134164-153    0.513888D-74    0.367434-150    0.421447D+00
   0   252    0.150857-154    0.145640D-74    0.463138-151    0.421447D+00
   0   253    0.166754-155    0.411289D-75    0.482367-152    0.421447D+00
   0   254    0.184051-156    0.115737D-75    0.645102-153    0.421447D+00
   0   255    0.205464-157    0.324531D-76    0.646404-154    0.421447D+00
   0   256    0.225793-158    0.906789D-77    0.637983-155    0.421447D+00
   0   257    0.239658-159    0.252480D-77    0.659955-156    0.421447D+00
   0   258    0.260842-160    0.700520D-78    0.756042-157    0.421447D+00
   0   259    0.274803-161    0.193683D-78    0.824582-158    0.421447D+00
   0   260    0.296096-162    0.533634D-79    0.990594-159    0.421447D+00
   0   261    0.318081-163    0.146515D-79    0.886284-160    0.421447D+00
   0   262    0.340565-164    0.400874D-80    0.131666-160    0.421447D+00
   0   263    0.366706-165    0.109302D-80    0.100347-161    0.421447D+00
   0   264    0.388418-166    0.296991D-81    0.106577-162    0.421447D+00
   0   265    0.412509-167    0.804191D-82    0.147302-163    0.421447D+00
   0   266    0.441678-168    0.217010D-82    0.122709-164    0.421447D+00
   0   267    0.464586-169    0.583592D-83    0.143031-165    0.421447D+00
   0   268    0.487048-170    0.156405D-83    0.165713-166    0.421447D+00
   0   269    0.517990-171    0.417741D-84    0.187261-167    0.421447D+00
   0   270    0.535250-172    0.111194D-84    0.153646-168    0.421447D+00
   0   271    0.551269-173    0.294973D-85    0.181550-169    0.421447D+00
   0   272    0.557363-174    0.779845D-86    0.214202-170    0.421447D+00
   0   273    0.563814-175    0.205478D-86    0.192918-171    0.421447D+00
   0   274    0.585442-176    0.539581D-87    0.196722-172    0.421447D+00
   0   275    0.588055-177    0.141217D-87    0.203450-173    0.421447D+00
   0   276    0.605735-178    0.368347D-88    0.183121-174    0.421447D+00
   0   277    0.611992-179    0.957577D-89    0.207843-175    0.421447D+00
   0   278    0.623645-180    0.248107D-89    0.251972-176    0.421447D+00
   0   279    0.622582-181    0.640704D-90    0.239208-177    0.421447D+00
   0   280    0.631935-182    0.164904D-90    0.189249-178    0.421447D+00
   0   281    0.629211-183    0.423026D-91    0.230522-179    0.421447D+00
   0   282    0.616076-184    0.108160D-91    0.229582-180    0.421447D+00
   0   283    0.609194-185    0.275632D-92    0.224277-181    0.421447D+00
   0   284    0.603571-186    0.700109D-93    0.229732-182    0.421447D+00
   0   285    0.594684-187    0.177246D-93    0.211790-183    0.421447D+00
   0   286    0.573399-188    0.447264D-94    0.200801-184    0.421447D+00
   0   287    0.562197-189    0.112495D-94    0.188364-185    0.421447D+00
   0   288    0.525821-190    0.282025D-95    0.225157-186    0.421447D+00
   0   289    0.511519-191    0.704741D-96    0.199246-187    0.421447D+00
   0   290    0.502490-192    0.175535D-96    0.165444-188    0.421447D+00
   0   291    0.478695-193    0.435806D-97    0.173951-189    0.421447D+00
   0   292    0.459076-194    0.107850D-97    0.174130-190    0.421447D+00
   0   293    0.434248-195    0.266043D-98    0.166511-191    0.421447D+00
   0   294    0.416866-196    0.654165D-99    0.169148-192    0.421447D+00
   0   295    0.387291-197    0.160336D-99    0.133268-193    0.421447D+00
   0   296    0.364344-198    0.391732-100    0.140164-194    0.421447D+00
   0   297    0.336304-199    0.954031-101    0.135674-195    0.421447D+00
   0   298    0.316328-200    0.231609-101    0.110665-196    0.421447D+00
   0   299    0.298878-201    0.560493-102    0.117536-197    0.421447D+00
   0   300    0.277149-202    0.135211-102    0.102873-198    0.421447D+00
   0   301    0.255326-203    0.325148-103    0.970990-200    0.421447D+00
   0   302    0.235695-204    0.779443-104    0.823637-201    0.421447D+00
   0   303    0.217196-205    0.186261-104    0.847520-202    0.421447D+00
   0   304    0.199220-206    0.443712-105    0.685222-203    0.421447D+00
   0   305    0.181672-207    0.105371-105    0.758044-204    0.421447D+00
   0   306    0.166508-208    0.249452-106    0.694684-205    0.421447D+00
   0   307    0.151831-209    0.588712-107    0.541325-206    0.421447D+00
   0   308    0.136599-210    0.138507-107    0.622895-207    0.421447D+00
   0   309    0.123367-211    0.324858-108    0.534571-208    0.421447D+00
   0   310    0.110134-212    0.759584-109    0.408429-209    0.421447D+00
   0   311    0.974555-214    0.177060-109    0.394892-210    0.421447D+00
   0   312    0.858197-215    0.411461-110    0.391155-211    0.421447D+00
   0   313    0.769103-216    0.953249-111    0.347310-212    0.421447D+00
   0   314    0.683274-217    0.220168-111    0.279224-213    0.421447D+00
   0   315    0.608031-218    0.506966-112    0.240970-214    0.421447D+00
   0   316    0.527948-219    0.116380-112    0.218403-215    0.421447D+00
   0   317    0.464079-220    0.266356-113    0.213734-216    0.421447D+00
   0   318    0.402185-221    0.607755-114    0.195172-217    0.421447D+00
   0   319    0.349756-222    0.138256-114    0.166665-218    0.421447D+00
   0   320    0.302521-223    0.313564-115    0.113564-219    0.421447D+00
   0   321    0.258158-224    0.709028-116    0.126944-220    0.421447D+00
   0   322    0.228304-225    0.159844-116    0.919394-222    0.421447D+00
   0   323    0.197648-226    0.359278-117    0.861933-223    0.421447D+00
   0   324    0.166412-227    0.805131-118    0.763192-224    0.421447D+00
   0   325    0.141850-228    0.179890-118    0.565709-225    0.421447D+00
   0   326    0.118658-229    0.400735-119    0.514900-226    0.421447D+00
   0   327    0.989386-231    0.890060-120    0.473948-227    0.421447D+00
   0   328    0.839923-232    0.197104-120    0.378586-228    0.421447D+00
   0   329    0.728166-233    0.435200-121    0.286569-229    0.421447D+00
   0   330    0.606382-234    0.958084-122    0.295231-230    0.421447D+00
   0   331    0.508106-235    0.210301-122    0.213282-231    0.421447D+00
   0   332    0.427918-236    0.460263-123    0.179333-232    0.421447D+00
   0   333    0.355191-237    0.100438-123    0.179475-233    0.421447D+00
   0   334    0.293538-238    0.218537-124    0.143046-234    0.421447D+00
   0   335    0.247064-239    0.474118-125    0.103721-235    0.421447D+00
   0   336    0.197047-240    0.102562-125    0.837812-237    0.421447D+00
   0   337    0.161747-241    0.221221-126    0.811479-238    0.421447D+00
   0   338    0.134172-242    0.475786-127    0.661053-239    0.421447D+00
   0   339    0.108831-243    0.102034-127    0.516032-240    0.421447D+00
   0   340    0.892734-245    0.218185-128    0.442801-241    0.421447D+00
   0   341    0.735500-246    0.465219-129    0.296631-242    0.421447D+00
   0   342    0.602654-247    0.989114-130    0.304283-243    0.421447D+00
   0   343    0.481927-248    0.209698-130    0.253217-244    0.421447D+00
   0   344    0.383417-249    0.443304-131    0.197683-245    0.421447D+00
   0   345    0.306614-250    0.934486-132    0.162139-246    0.421447D+00
   0   346    0.240458-251    0.196432-132    0.122369-247    0.421447D+00
   0   347    0.190943-252    0.411736-133    0.982003-249    0.421447D+00
   0   348    0.150147-253    0.860595-134    0.739832-250    0.421447D+00
   0   349    0.119463-254    0.179371-134    0.507078-251    0.421447D+00
   0   350    0.950588-256    0.372808-135    0.477938-252    0.421447D+00
   0   351    0.743500-257    0.772677-136    0.326838-253    0.421447D+00
   0   352    0.584761-258    0.159696-136    0.316753-254    0.421447D+00
   0   353    0.458101-259    0.329136-137    0.224151-255    0.421447D+00
   0   354    0.350806-260    0.676464-138    0.164938-256    0.421447D+00
   0   355    0.271992-261    0.138645-138    0.126734-257    0.421447D+00
   0   356    0.210613-262    0.283374-139    0.104079-258    0.421447D+00
   0   357    0.162564-263    0.577579-140    0.877348-260    0.421447D+00
   0   358    0.128277-264    0.117398-140    0.613964-261    0.421447D+00
   0   359    0.980675-266    0.237965-141    0.538077-262    0.421447D+00
   0   360    0.752208-267    0.481028-142    0.416275-263    0.421447D+00
   0   361    0.580401-268    0.969693-143    0.282938-264    0.421447D+00
   0   362    0.442599-269    0.194943-143    0.236587-265    0.421447D+00
   0   363    0.334909-270    0.390835-144    0.174774-266    0.421447D+00
   0   364    0.251845-271    0.781436-145    0.129621-267    0.421447D+00
   0   365    0.190753-272    0.155816-145    0.969428-269    0.421447D+00
   0   366    0.145971-273    0.309848-146    0.653677-270    0.421447D+00
   0   367    0.109164-274    0.614483-147    0.532062-271    0.421447D+00
   0   368    0.823499-276    0.121533-147    0.410541-272    0.421447D+00
   0   369    0.608522-277    0.239722-148    0.306749-273    0.421447D+00
   0   370    0.448500-278    0.471576-149    0.227522-274    0.421447D+00
   0   371    0.330799-279    0.925184-150    0.173571-275    0.421447D+00
   0   372    0.238434-280    0.181025-150    0.121374-276    0.421447D+00
   0   373    0.176695-281    0.353255-151    0.102105-277    0.421447D+00
   0   374    0.128892-282    0.687508-152    0.704172-279    0.421447D+00
   0   375    0.937045-284    0.133447-152    0.484574-280    0.421447D+00
   0   376    0.689992-285    0.258337-153    0.370969-281    0.421447D+00
   0   377    0.506529-286    0.498783-154    0.288149-282    0.421447D+00
   0   378    0.366185-287    0.960477-155    0.219261-283    0.421447D+00
   0   379    0.267320-288    0.184465-155    0.156973-284    0.421447D+00
   0   380    0.191136-289    0.353343-156    0.111096-285    0.421447D+00
   0   381    0.136116-290    0.675051-157    0.698865-287    0.421447D+00
   0   382    0.978538-292    0.128628-157    0.534307-288    0.421447D+00
   0   383    0.696783-293    0.244454-158    0.348990-289    0.421447D+00
   0   384    0.493130-294    0.463366-159    0.260726-290    0.421447D+00
   0   385    0.354097-295    0.876027-160    0.187877-291    0.421447D+00
   0   386    0.253684-296    0.165189-160    0.135386-292    0.421447D+00
   0   387    0.183126-297    0.310681-161    0.102465-293    0.421447D+00
   0   388    0.130635-298    0.582805-162    0.652308-295    0.421447D+00
   0   389    0.905778-300    0.109045-162    0.564768-296    0.421447D+00
   0   390    0.640649-301    0.203503-163    0.334160-297    0.421447D+00
   0   391    0.445091-302    0.378805-164    0.262254-298    0.421447D+00
   0   392    0.308239-303    0.703306-165    0.189055-299    0.421447D+00
   0   393    0.216874-304    0.130244-165    0.128243-300    0.421447D+00
   0   394    0.151051-305    0.240580-166    0.817658-302    0.421447D+00
   0   395    0.103730-306    0.443253-167    0.651034-303    0.421447D+00
   0   396    0.708683-308    0.814584-168    0.386172-304    0.421447D+00
   0   397    0.487863-309    0.149314-168    0.292038-305    0.421447D+00