variables =  "IG"  "JG"  "PHI"  "Temp."  "Latent_heat"  "mm"
ZONE  I=  401  J=  101
   0     0    0.100000D+01    0.825220D+00    0.000000D+00    0.301125D+00
   0     1    0.100000D+01    0.825220D+00    0.000000D+00    0.301125D+00
   0     2    0.100000D+01    0.825766D+00    0.000000D+00    0.300738D+00
   0     3    0.100000D+01    0.826857D+00    0.000000D+00    0.299960D+00
   0     4    0.100000D+01    0.828486D+00    0.000000D+00    0.298784D+00
   0     5    0.100000D+01    0.830645D+00    0.000000D+00    0.297200D+00
   0     6    0.100000D+01    0.833325D+00    0.000000D+00    0.295192D+00
   0     7    0.100000D+01    0.836512D+00    0.000000D+00    0.292741D+00
   0     8    0.100000D+01    0.840191D+00    0.000000D+00    0.289823D+00
   0     9    0.100000D+01    0.844346D+00    0.000000D+00    0.286410D+00
   0    10    0.100000D+01    0.848958D+00    0.000000D+00    0.282468D+00
   0    11    0.100000D+01    0.854005D+00    0.000000D+00    0.277957D+00
   0    12    0.100000D+01    0.859468D+00    0.000000D+00    0.272829D+00
   0    13    0.100000D+01    0.865323D+00    0.000000D+00    0.267031D+00
   0    14    0.100000D+01    0.871548D+00    0.000000D+00    0.260499D+00
   0    15    0.100000D+01    0.878121D+00    0.133227D-10    0.253161D+00
   0    16    0.100000D+01    0.885021D+00   -0.399680D-10    0.244932D+00
   0    17    0.100000D+01    0.892226D+00    0.532907D-09    0.235717D+00
   0    18    0.100000D+01    0.899718D+00    0.694111D-08    0.225406D+00
   0    19    0.100000D+01    0.907481D+00    0.159739D-07    0.213877D+00
   0    20    0.100000D+01    0.915500D+00    0.282308D-06    0.200990D+00
   0    21    0.100000D+01    0.923768D+00   -0.132222D-05    0.186597D+00
   0    22    0.100000D+01    0.932277D+00    0.411839D-05    0.170536D+00
   0    23    0.100000D+01    0.941028D+00    0.824008D-05    0.152642D+00
   0    24    0.999998D+00    0.950031D+00   -0.130267D-03    0.132751D+00
   0    25    0.999985D+00    0.959312D+00    0.679158D-02    0.110698D+00
   0    26    0.999900D+00    0.968922D+00   -0.259089D-01    0.863128D-01
   0    27    0.999315D+00    0.978966D+00   -0.239223D-01    0.593868D-01
   0    28    0.995337D+00    0.989581D+00    0.849829D+00    0.297205D-01
   0    29    0.970577D+00    0.100186D+01   -0.564057D+01   -0.514453D-02
   0    30    0.825070D+00    0.101503D+01   -0.200911D+01   -0.425977D-01
   0    31    0.304871D+00    0.102839D+01   -0.614320D+02   -0.800360D-01
   0    32    0.704244D-01    0.102466D+01   -0.138202D+02   -0.679568D-01
   0    33    0.208747D-01    0.101970D+01   -0.241854D+01   -0.553350D-01
   0    34    0.106300D-01    0.101509D+01   -0.398126D+01   -0.429875D-01
   0    35    0.913123D-02    0.101167D+01   -0.361610D+01   -0.329609D-01
   0    36    0.943917D-02    0.100951D+01   -0.170894D+01   -0.273324D-01
   0    37    0.103877D-01    0.100732D+01   -0.658783D+01   -0.215823D-01
   0    38    0.106966D-01    0.100660D+01    0.232070D+01   -0.187882D-01
   0    39    0.111726D-01    0.100606D+01    0.508876D+01   -0.175622D-01
   0    40    0.111401D-01    0.100584D+01   -0.101059D+01   -0.165128D-01
   0    41    0.110949D-01    0.100615D+01    0.615509D+01   -0.173579D-01
   0    42    0.115505D-01    0.100448D+01    0.549275D+01   -0.126666D-01
   0    43    0.115618D-01    0.100375D+01    0.319410D+01   -0.108005D-01
   0    44    0.116955D-01    0.100357D+01    0.222028D+01   -0.105667D-01
   0    45    0.116616D-01    0.100300D+01   -0.355934D+01   -0.856194D-02
   0    46    0.121676D-01    0.100183D+01   -0.536698D+01   -0.484950D-02
   0    47    0.120811D-01    0.100331D+01   -0.542795D+01   -0.926267D-02
   0    48    0.124125D-01    0.100240D+01    0.292541D+00   -0.692227D-02
   0    49    0.125820D-01    0.100131D+01   -0.709528D+01   -0.305193D-02
   0    50    0.127940D-01    0.100238D+01    0.575122D+01   -0.624455D-02
   0    51    0.132636D-01    0.100158D+01   -0.580926D+01   -0.496198D-02
   0    52    0.133666D-01    0.100138D+01   -0.245888D+01   -0.395647D-02
   0    53    0.131839D-01    0.999880D+00   -0.480866D+01    0.204214D-03
   0    54    0.128865D-01    0.100017D+01   -0.298945D+01   -0.101076D-02
   0    55    0.130837D-01    0.999451D+00   -0.354041D+01    0.134785D-02
   0    56    0.133269D-01    0.100022D+01    0.320294D+01   -0.668946D-03
   0    57    0.137024D-01    0.100009D+01   -0.212497D+01    0.487644D-03
   0    58    0.140696D-01    0.100035D+01   -0.167588D+01   -0.144077D-02
   0    59    0.136001D-01    0.999939D+00    0.906233D+01    0.734933D-03
   0    60    0.139324D-01    0.998726D+00    0.651063D+01    0.303960D-02
   0    61    0.140282D-01    0.998812D+00   -0.290881D+01    0.374469D-02
   0    62    0.140838D-01    0.998394D+00    0.209953D+01    0.430349D-02
   0    63    0.142104D-01    0.998365D+00   -0.335941D+01    0.500536D-02
   0    64    0.139995D-01    0.998456D+00   -0.636943D+00    0.486530D-02
   0    65    0.144465D-01    0.998012D+00   -0.732830D+01    0.530945D-02
   0    66    0.141244D-01    0.997823D+00   -0.366000D+01    0.622145D-02
   0    67    0.142732D-01    0.998243D+00    0.416363D+01    0.564773D-02
   0    68    0.138612D-01    0.997490D+00   -0.521781D+01    0.705604D-02
   0    69    0.142992D-01    0.997683D+00   -0.130542D+01    0.675389D-02
   0    70    0.144439D-01    0.997330D+00   -0.898796D+01    0.773308D-02
   0    71    0.141661D-01    0.997468D+00   -0.181183D+01    0.770308D-02
   0    72    0.143192D-01    0.998588D+00    0.581911D+01    0.460610D-02
   0    73    0.139923D-01    0.999135D+00    0.457989D+01    0.177176D-02
   0    74    0.143156D-01    0.998462D+00   -0.225965D+01    0.408808D-02
   0    75    0.144143D-01    0.999107D+00   -0.734106D+01    0.180578D-02
   0    76    0.142984D-01    0.998807D+00   -0.611508D+00    0.365768D-02
   0    77    0.138232D-01    0.997831D+00   -0.274439D+01    0.555976D-02
   0    78    0.143258D-01    0.998133D+00   -0.283178D+01    0.482622D-02
   0    79    0.144182D-01    0.997217D+00   -0.758811D+00    0.789608D-02
   0    80    0.139440D-01    0.998996D+00   -0.294639D+01    0.346820D-02
   0    81    0.137338D-01    0.997685D+00    0.753421D+00    0.620497D-02
   0    82    0.139264D-01    0.998222D+00    0.815908D+01    0.544748D-02
   0    83    0.141197D-01    0.998055D+00   -0.589771D+01    0.560153D-02
   0    84    0.135690D-01    0.999395D+00    0.860606D+00    0.244114D-02
   0    85    0.134735D-01    0.998686D+00    0.757416D+01    0.387667D-02
   0    86    0.138607D-01    0.999103D+00    0.750355D+01    0.292499D-02
   0    87    0.140812D-01    0.998515D+00    0.810068D+01    0.399670D-02
   0    88    0.143153D-01    0.997833D+00   -0.191407D+01    0.607180D-02
   0    89    0.140928D-01    0.997310D+00    0.616071D+01    0.713810D-02
   0    90    0.140904D-01    0.997402D+00    0.134337D+01    0.767354D-02
   0    91    0.146966D-01    0.997963D+00   -0.605821D+01    0.626979D-02
   0    92    0.148141D-01    0.997667D+00    0.686970D+01    0.666911D-02
   0    93    0.143375D-01    0.997329D+00    0.331531D+01    0.800606D-02
   0    94    0.141391D-01    0.997219D+00   -0.557387D+01    0.754381D-02
   0    95    0.142839D-01    0.997686D+00   -0.433348D+01    0.674740D-02
   0    96    0.143506D-01    0.999106D+00    0.745374D+01    0.299960D-02
   0    97    0.143794D-01    0.998961D+00    0.379280D+00    0.306175D-02
   0    98    0.142825D-01    0.999160D+00    0.343645D+01    0.320372D-02
   0    99    0.142581D-01    0.999185D+00    0.198625D+00    0.262513D-02
   0   100    0.141755D-01    0.998455D+00   -0.158528D+01    0.393966D-02
   0   101    0.143692D-01    0.997840D+00    0.768002D+01    0.563630D-02
   0   102    0.145716D-01    0.997688D+00    0.787016D+01    0.640310D-02
   0   103    0.148856D-01    0.998269D+00   -0.496370D+01    0.522792D-02
   0   104    0.146896D-01    0.998033D+00    0.577323D+01    0.582972D-02
   0   105    0.147934D-01    0.996800D+00    0.492569D+01    0.954916D-02
   0   106    0.154948D-01    0.996586D+00   -0.849280D+01    0.102440D-01
   0   107    0.152818D-01    0.996009D+00   -0.500807D+01    0.112937D-01
   0   108    0.152371D-01    0.996079D+00   -0.303587D+00    0.115757D-01
   0   109    0.153609D-01    0.995150D+00   -0.431929D+01    0.133875D-01
   0   110    0.156352D-01    0.994557D+00    0.895183D+01    0.153204D-01
   0   111    0.159295D-01    0.994455D+00    0.113377D+01    0.153848D-01
   0   112    0.163935D-01    0.992814D+00   -0.776437D+01    0.204243D-01
   0   113    0.167891D-01    0.992049D+00    0.394775D+01    0.223149D-01
   0   114    0.174602D-01    0.990697D+00   -0.681081D+00    0.262826D-01
   0   115    0.180779D-01    0.986448D+00    0.249832D+01    0.389596D-01
   0   116    0.199224D-01    0.978734D+00    0.468294D+01    0.602216D-01
   0   117    0.235953D-01    0.966810D+00   -0.146104D+02    0.912800D-01
   0   118    0.259357D-01    0.951828D+00   -0.838269D+01    0.129420D+00
   0   119    0.294083D-01    0.922811D+00    0.958223D+01    0.189156D+00
   0   120    0.279930D-01    0.878955D+00   -0.942346D+01    0.252520D+00
   0   121    0.216507D-01    0.811985D+00    0.619831D+01    0.310109D+00
   0   122    0.130918D-01    0.721638D+00    0.107957D+02    0.351391D+00
   0   123    0.635094D-02    0.613868D+00    0.681768D+01    0.377501D+00
   0   124    0.277512D-02    0.502986D+00    0.703157D+00    0.393179D+00
   0   125    0.110137D-02    0.398699D+00    0.900131D+00    0.402826D+00
   0   126    0.401494D-03    0.307107D+00    0.403827D+00    0.408963D+00
   0   127    0.138922D-03    0.230777D+00    0.606422D-01    0.412981D+00
   0   128    0.476214D-04    0.169745D+00    0.551537D-01    0.415672D+00
   0   129    0.156043D-04    0.122531D+00    0.197739D-01    0.417499D+00
   0   130    0.495735D-05    0.870055D-01    0.195539D-02    0.418752D+00
   0   131    0.155659D-05    0.608950D-01    0.120309D-02    0.419613D+00
   0   132    0.481078D-06    0.420851D-01    0.453179D-03    0.420204D+00
   0   133    0.144900D-06    0.287658D-01    0.675809D-04    0.420609D+00
   0   134    0.430925D-07    0.194731D-01    0.128834D-04    0.420885D+00
   0   135    0.124021D-07    0.130721D-01    0.140085D-04    0.421072D+00
   0   136    0.353355D-08    0.871120D-02    0.315811D-05    0.421198D+00
   0   137    0.101724D-08    0.576826D-02    0.173434D-06    0.421283D+00
   0   138    0.297733D-09    0.379844D-02    0.119615D-06    0.421339D+00
   0   139    0.903443D-10    0.248926D-02    0.102163D-06    0.421376D+00
   0   140    0.275937D-10    0.162446D-02    0.546965D-08    0.421401D+00
   0   141    0.844283D-11    0.105622D-02    0.404614D-08    0.421417D+00
   0   142    0.254736D-11    0.684555D-03    0.157044D-08    0.421428D+00
   0   143    0.765761D-12    0.442428D-03    0.781443D-09    0.421434D+00
   0   144    0.219934D-12    0.285239D-03    0.145489D-09    0.421439D+00
   0   145    0.616297D-13    0.183500D-03    0.351369D-10    0.421442D+00
   0   146    0.179085D-13    0.117826D-03    0.178602D-10    0.421444D+00
   0   147    0.503074D-14    0.755295D-04    0.498820D-11    0.421445D+00
   0   148    0.137167D-14    0.483449D-04    0.588658D-12    0.421446D+00
   0   149    0.370239D-15    0.309042D-04    0.468683D-12    0.421446D+00
   0   150    0.100971D-15    0.197325D-04    0.351540D-13    0.421446D+00
   0   151    0.281311D-16    0.125863D-04    0.670282D-14    0.421447D+00
   0   152    0.761491D-17    0.802084D-05    0.295188D-14    0.421447D+00
   0   153    0.203919D-17    0.510726D-05    0.103940D-14    0.421447D+00
   0   154    0.528308D-18    0.324968D-05    0.329511D-15    0.421447D+00
   0   155    0.137794D-18    0.206640D-05    0.139223D-15    0.421447D+00
   0   156    0.375970D-19    0.131322D-05    0.243260D-16    0.421447D+00
   0   157    0.976940D-20    0.834130D-06    0.115748D-16    0.421447D+00
   0   158    0.246217D-20    0.529579D-06    0.120609D-17    0.421447D+00
   0   159    0.620111D-21    0.336084D-06    0.392726D-18    0.421447D+00
   0   160    0.158448D-21    0.213208D-06    0.197681D-18    0.421447D+00
   0   161    0.398959D-22    0.135212D-06    0.267478D-19    0.421447D+00
   0   162    0.101536D-22    0.857225D-07    0.104864D-19    0.421447D+00
   0   163    0.258797D-23    0.543323D-07    0.279532D-20    0.421447D+00
   0   164    0.648505D-24    0.344283D-07    0.499131D-21    0.421447D+00
   0   165    0.157323D-24    0.218111D-07    0.213400D-21    0.421447D+00
   0   166    0.407568D-25    0.138151D-07    0.140106D-22    0.421447D+00
   0   167    0.102510D-25    0.874890D-08    0.782053D-23    0.421447D+00
   0   168    0.248857D-26    0.553965D-08    0.100939D-23    0.421447D+00
   0   169    0.606305D-27    0.350710D-08    0.585770D-24    0.421447D+00
   0   170    0.150981D-27    0.222002D-08    0.647412D-25    0.421447D+00
   0   171    0.373564D-28    0.140511D-08    0.439189D-25    0.421447D+00
   0   172    0.889619D-29    0.889242D-09    0.590855D-26    0.421447D+00
   0   173    0.224601D-29    0.562710D-09    0.979335D-27    0.421447D+00
   0   174    0.546341D-30    0.356049D-09    0.674814D-27    0.421447D+00
   0   175    0.129899D-30    0.225268D-09    0.890540D-28    0.421447D+00
   0   176    0.315148D-31    0.142513D-09    0.315099D-28    0.421447D+00
   0   177    0.776860D-32    0.901527D-10    0.646034D-29    0.421447D+00
   0   178    0.194257D-32    0.570263D-10    0.194520D-29    0.421447D+00
   0   179    0.462959D-33    0.360698D-10    0.366972D-30    0.421447D+00
   0   180    0.108991D-33    0.228133D-10    0.496765D-31    0.421447D+00
   0   181    0.272955D-34    0.144281D-10    0.277847D-31    0.421447D+00
   0   182    0.639805D-35    0.912449D-11    0.584813D-32    0.421447D+00
   0   183    0.152863D-35    0.577014D-11    0.181215D-32    0.421447D+00
   0   184    0.368316D-36    0.364875D-11    0.131595D-33    0.421447D+00
   0   185    0.908091D-37    0.230719D-11    0.877025D-34    0.421447D+00
   0   186    0.212740D-37    0.145882D-11    0.203449D-34    0.421447D+00
   0   187    0.528735D-38    0.922363D-12    0.532386D-35    0.421447D+00
   0   188    0.129063D-38    0.583154D-12    0.161072D-35    0.421447D+00
   0   189    0.298311D-39    0.368677D-12    0.423865D-36    0.421447D+00
   0   190    0.721315D-40    0.233072D-12    0.918000D-37    0.421447D+00
   0   191    0.172429D-40    0.147338D-12    0.473399D-38    0.421447D+00
   0   192    0.404402D-41    0.931362D-13    0.277343D-38    0.421447D+00
   0   193    0.996019D-42    0.588710D-13    0.767066D-39    0.421447D+00
   0   194    0.238736D-42    0.372101D-13    0.237559D-39    0.421447D+00
   0   195    0.570973D-43    0.235178D-13    0.643630D-40    0.421447D+00
   0   196    0.139496D-43    0.148630D-13    0.189804D-40    0.421447D+00
   0   197    0.328871D-44    0.939262D-14    0.979976D-42    0.421447D+00
   0   198    0.791567D-45    0.593521D-14    0.444733D-42    0.421447D+00
   0   199    0.185343D-45    0.375017D-14    0.102491D-42    0.421447D+00
   0   200    0.435901D-46    0.236934D-14    0.331174D-43    0.421447D+00
   0   201    0.102486D-46    0.149680D-14    0.134872D-43    0.421447D+00
   0   202    0.240441D-47    0.945479D-15    0.297460D-44    0.421447D+00
   0   203    0.568405D-48    0.597158D-15    0.543684D-45    0.421447D+00
   0   204    0.135043D-48    0.377111D-15    0.180649D-45    0.421447D+00
   0   205    0.323264D-49    0.238115D-15    0.359888D-46    0.421447D+00
   0   206    0.763743D-50    0.150326D-15    0.525669D-47    0.421447D+00
   0   207    0.183569D-50    0.948869D-16    0.262103D-47    0.421447D+00
   0   208    0.437434D-51    0.598817D-16    0.564344D-48    0.421447D+00
   0   209    0.103155D-51    0.377823D-16    0.692773D-49    0.421447D+00
   0   210    0.243150D-52    0.238332D-16    0.236972D-49    0.421447D+00
   0   211    0.574777D-53    0.150303D-16    0.272251D-50    0.421447D+00
   0   212    0.138637D-53    0.947613D-17    0.177264D-50    0.421447D+00
   0   213    0.318455D-54    0.597262D-17    0.361667D-51    0.421447D+00
   0   214    0.748185D-55    0.376321D-17    0.577390D-52    0.421447D+00
   0   215    0.182492D-55    0.237028D-17    0.119972D-52    0.421447D+00
   0   216    0.431633D-56    0.149238D-17    0.432075D-53    0.421447D+00
   0   217    0.101233D-56    0.939251D-18    0.148032D-53    0.421447D+00
   0   218    0.239929D-57    0.590879D-18    0.220656D-54    0.421447D+00
   0   219    0.552574D-58    0.371548D-18    0.433265D-55    0.421447D+00
   0   220    0.132602D-58    0.233518D-18    0.576849D-56    0.421447D+00
   0   221    0.319049D-59    0.146690D-18    0.319853D-56    0.421447D+00
   0   222    0.753294D-60    0.920960D-19    0.588522D-57    0.421447D+00
   0   223    0.175506D-60    0.577871D-19    0.104220D-57    0.421447D+00
   0   224    0.422149D-61    0.362373D-19    0.107085D-58    0.421447D+00
   0   225    0.983264D-62    0.227093D-19    0.821582D-59    0.421447D+00
   0   226    0.236486D-62    0.142219D-19    0.318187D-59    0.421447D+00
   0   227    0.547752D-63    0.890041D-20    0.642004D-60    0.421447D+00
   0   228    0.127002D-63    0.556600D-20    0.128663D-60    0.421447D+00
   0   229    0.301841D-64    0.347812D-20    0.845635D-62    0.421447D+00
   0   230    0.714737D-65    0.217171D-20    0.428785D-62    0.421447D+00
   0   231    0.170608D-65    0.135488D-20    0.159888D-62    0.421447D+00
   0   232    0.398301D-66    0.844563D-21    0.277898D-63    0.421447D+00
   0   233    0.956704D-67    0.525992D-21    0.278278D-64    0.421447D+00
   0   234    0.224819D-67    0.327289D-21    0.858522D-65    0.421447D+00
   0   235    0.542793D-68    0.203459D-21    0.648164D-65    0.421447D+00
   0   236    0.127623D-68    0.126358D-21    0.143122D-65    0.421447D+00
   0   237    0.303025D-69    0.783968D-22    0.263364D-66    0.421447D+00
   0   238    0.721829D-70    0.485905D-22    0.677460D-67    0.421447D+00
   0   239    0.172027D-70    0.300851D-22    0.238625D-67    0.421447D+00
   0   240    0.404816D-71    0.186075D-22    0.327409D-68    0.421447D+00
   0   241    0.938762D-72    0.114961D-22    0.726833D-69    0.421447D+00
   0   242    0.222138D-72    0.709463D-23    0.925378D-70    0.421447D+00
   0   243    0.525414D-73    0.437334D-23    0.460675D-70    0.421447D+00
   0   244    0.122305D-73    0.269274D-23    0.127001D-70    0.421447D+00
   0   245    0.288148D-74    0.165601D-23    0.278638D-71    0.421447D+00
   0   246    0.682192D-75    0.101720D-23    0.812044D-72    0.421447D+00
   0   247    0.162580D-75    0.624057D-24    0.158896D-72    0.421447D+00
   0   248    0.387009D-76    0.382386D-24    0.218625D-73    0.421447D+00
   0   249    0.893632D-77    0.234009D-24    0.414755D-74    0.421447D+00
   0   250    0.212100D-77    0.143025D-24    0.145467D-74    0.421447D+00
   0   251    0.495679D-78    0.873025D-25    0.279180D-75    0.421447D+00
   0   252    0.119316D-78    0.532199D-25    0.103367D-75    0.421447D+00
   0   253    0.280822D-79    0.324001D-25    0.398961D-76    0.421447D+00
   0   254    0.666315D-80    0.196987D-25    0.318544D-77    0.421447D+00
   0   255    0.152289D-80    0.119603D-25    0.162780D-77    0.421447D+00
   0   256    0.365236D-81    0.725186D-26    0.278394D-78    0.421447D+00
   0   257    0.835685D-82    0.439096D-26    0.102518D-78    0.421447D+00
   0   258    0.192975D-82    0.265500D-26    0.287667D-79    0.421447D+00
   0   259    0.450149D-83    0.160309D-26    0.336655D-80    0.421447D+00
   0   260    0.107612D-83    0.966580D-27    0.842374D-81    0.421447D+00
   0   261    0.246515D-84    0.581965D-27    0.323141D-81    0.421447D+00
   0   262    0.585282D-85    0.349890D-27    0.609840D-82    0.421447D+00
   0   263    0.136736D-85    0.210057D-27    0.103963D-82    0.421447D+00
   0   264    0.327528D-86    0.125924D-27    0.391489D-83    0.421447D+00
   0   265    0.772715D-87    0.753782D-28    0.423682D-84    0.421447D+00
   0   266    0.175747D-87    0.450547D-28    0.105716D-84    0.421447D+00
   0   267    0.424007D-88    0.268900D-28    0.316439D-85    0.421447D+00
   0   268    0.991449D-89    0.160248D-28    0.147054D-85    0.421447D+00
   0   269    0.237525D-89    0.953553D-29    0.164393D-86    0.421447D+00
   0   270    0.562888D-90    0.566555D-29    0.280498D-87    0.421447D+00
   0   271    0.131360D-90    0.336110D-29    0.141950D-87    0.421447D+00
   0   272    0.305364D-91    0.199096D-29    0.337115D-88    0.421447D+00
   0   273    0.724321D-92    0.117755D-29    0.625605D-89    0.421447D+00
   0   274    0.166018D-92    0.695395D-30    0.831201D-90    0.421447D+00
   0   275    0.389576D-93    0.410030D-30    0.543097D-90    0.421447D+00
   0   276    0.935670D-94    0.241396D-30    0.311591D-91    0.421447D+00
   0   277    0.208229D-94    0.141897D-30    0.284333D-91    0.421447D+00
   0   278    0.483933D-95    0.832800D-31    0.722465D-92    0.421447D+00
   0   279    0.116267D-95    0.488014D-31    0.132652D-92    0.421447D+00
   0   280    0.275694D-96    0.285526D-31    0.121394D-93    0.421447D+00
   0   281    0.655949D-97    0.166794D-31    0.804848D-94    0.421447D+00
   0   282    0.158772D-97    0.972821D-32    0.182642D-94    0.421447D+00
   0   283    0.374635D-98    0.566503D-32    0.218983D-95    0.421447D+00
   0   284    0.889355D-99    0.329373D-32    0.714307D-96    0.421447D+00
   0   285    0.204105D-99    0.191199D-32    0.977006D-97    0.421447D+00
   0   286    0.480113-100    0.110815D-32    0.285024D-97    0.421447D+00
   0   287    0.111841-100    0.641241D-33    0.730923D-98    0.421447D+00
   0   288    0.256742-101    0.370471D-33    0.338883D-98    0.421447D+00
   0   289    0.627331-102    0.213696D-33    0.666283D-99    0.421447D+00
   0   290    0.148845-102    0.123069D-33    0.663209-100    0.421447D+00
   0   291    0.352205-103    0.707628D-34    0.147862-100    0.421447D+00
   0   292    0.821773-104    0.406227D-34    0.420262-101    0.421447D+00
   0   293    0.192161-104    0.232830D-34    0.258429-101    0.421447D+00
   0   294    0.440260-105    0.133233D-34    0.571510-102    0.421447D+00
   0   295    0.103307-105    0.761182D-35    0.105662-102    0.421447D+00
   0   296    0.234563-106    0.434179D-35    0.356389-103    0.421447D+00
   0   297    0.552356-107    0.247258D-35    0.643044-104    0.421447D+00
   0   298    0.132202-107    0.140584D-35    0.110862-104    0.421447D+00
   0   299    0.308667-108    0.798032D-36    0.376750-105    0.421447D+00
   0   300    0.746088-109    0.452279D-36    0.837880-106    0.421447D+00
   0   301    0.177376-109    0.255913D-36    0.842569-107    0.421447D+00
   0   302    0.411154-110    0.144570D-36    0.272348-107    0.421447D+00
   0   303    0.948867-111    0.815383D-37    0.716388-108    0.421447D+00
   0   304    0.222479-111    0.459140D-37    0.189108-108    0.421447D+00
   0   305    0.524133-112    0.258123D-37    0.208195-109    0.421447D+00
   0   306    0.117383-112    0.144879D-37    0.785926-110    0.421447D+00
   0   307    0.278113-113    0.811866D-38    0.231167-110    0.421447D+00
   0   308    0.654794-114    0.454213D-38    0.650230-111    0.421447D+00
   0   309    0.154425-114    0.253707D-38    0.104151-111    0.421447D+00
   0   310    0.363213-115    0.141482D-38    0.172452-112    0.421447D+00
   0   311    0.833400-116    0.787716D-39    0.779953-113    0.421447D+00
   0   312    0.198121-116    0.437858D-39    0.208016-113    0.421447D+00
   0   313    0.467428-117    0.242993D-39    0.248284-114    0.421447D+00
   0   314    0.110577-117    0.134633D-39    0.108749-114    0.421447D+00
   0   315    0.266719-118    0.744740D-40    0.162804-115    0.421447D+00
   0   316    0.613969-119    0.411296D-40    0.720275-116    0.421447D+00
   0   317    0.147433-119    0.226778D-40    0.927872-117    0.421447D+00
   0   318    0.346425-120    0.124837D-40    0.372938-117    0.421447D+00
   0   319    0.786193-121    0.686095D-41    0.306896-118    0.421447D+00
   0   320    0.186498-121    0.376461D-41    0.115891-118    0.421447D+00
   0   321    0.440925-122    0.206231D-41    0.202817-119    0.421447D+00
   0   322    0.106181-122    0.112793D-41    0.944223-120    0.421447D+00
   0   323    0.252471-123    0.615897D-42    0.230771-120    0.421447D+00
   0   324    0.596323-124    0.335762D-42    0.283118-121    0.421447D+00
   0   325    0.136732-124    0.182747D-42    0.158960-121    0.421447D+00
   0   326    0.326532-125    0.993041D-43    0.381497-122    0.421447D+00
   0   327    0.750268-126    0.538742D-43    0.660145-123    0.421447D+00
   0   328    0.180393-126    0.291805D-43    0.246678-123    0.421447D+00
   0   329    0.430511-127    0.157798D-43    0.568411-124    0.421447D+00
   0   330    0.103886-127    0.851936D-44    0.143320-124    0.421447D+00
   0   331    0.237651-128    0.459209D-44    0.228905-125    0.421447D+00
   0   332    0.556063-129    0.247123D-44    0.306469-126    0.421447D+00
   0   333    0.130726-129    0.132774D-44    0.111111-126    0.421447D+00
   0   334    0.299574-130    0.712216D-45    0.220494-127    0.421447D+00
   0   335    0.722323-131    0.381425D-45    0.572249-128    0.421447D+00
   0   336    0.171462-131    0.203941D-45    0.203674-128    0.421447D+00
   0   337    0.402178-132    0.108868D-45    0.397384-129    0.421447D+00
   0   338    0.955282-133    0.580225D-46    0.118055-129    0.421447D+00
   0   339    0.223133-133    0.308739D-46    0.252027-130    0.421447D+00
   0   340    0.534259-134    0.164016D-46    0.556677-131    0.421447D+00
   0   341    0.125295-134    0.869923D-47    0.903882-132    0.421447D+00
   0   342    0.290421-135    0.460656D-47    0.107404-132    0.421447D+00
   0   343    0.664006-136    0.243542D-47    0.899663-133    0.421447D+00
   0   344    0.154432-136    0.128550D-47    0.660744-134    0.421447D+00
   0   345    0.363200-137    0.677439D-48    0.468696-134    0.421447D+00
   0   346    0.870911-138    0.356428D-48    0.655468-135    0.421447D+00
   0   347    0.204670-138    0.187230D-48    0.182596-135    0.421447D+00
   0   348    0.470847-139    0.981931D-49    0.524981-136    0.421447D+00
   0   349    0.111482-139    0.514150D-49    0.146638-136    0.421447D+00
   0   350    0.258935-140    0.268783D-49    0.358706-137    0.421447D+00
   0   351    0.613940-141    0.140287D-49    0.644721-138    0.421447D+00
   0   352    0.143049-141    0.731033D-50    0.706319-139    0.421447D+00
   0   353    0.325697-142    0.380331D-50    0.437399-139    0.421447D+00
   0   354    0.761763-143    0.197556D-50    0.512879-140    0.421447D+00
   0   355    0.173459-143    0.102453D-50    0.180439-140    0.421447D+00
   0   356    0.405446-144    0.530473D-51    0.263184-141    0.421447D+00
   0   357    0.927560-145    0.274226D-51    0.530979-142    0.421447D+00
   0   358    0.220320-145    0.141534D-51    0.167890-142    0.421447D+00
   0   359    0.490661-146    0.729319D-52    0.696605-143    0.421447D+00
   0   360    0.113241-146    0.375217D-52    0.131539-143    0.421447D+00
   0   361    0.253786-147    0.192733D-52    0.345868-144    0.421447D+00
   0   362    0.592299-148    0.988408D-53    0.232564-145    0.421447D+00
   0   363    0.135478-148    0.506087D-53    0.661530-146    0.421447D+00
   0   364    0.310753-149    0.258716D-53    0.347867-146    0.421447D+00
   0   365    0.716902-150    0.132047D-53    0.927515-147    0.421447D+00
   0   366    0.165860-150    0.672893D-54    0.844261-148    0.421447D+00
   0   367    0.386079-151    0.342352D-54    0.454016-148    0.421447D+00
   0   368    0.846429-152    0.173904D-54    0.891826-149    0.421447D+00
   0   369    0.193424-152    0.881977D-55    0.273453-149    0.421447D+00
   0   370    0.448323-153    0.446598D-55    0.585382-150    0.421447D+00
   0   371    0.987853-154    0.225781D-55    0.813209-151    0.421447D+00
   0   372    0.221742-154    0.113965D-55    0.216110-151    0.421447D+00
   0   373    0.503635-155    0.574337D-56    0.608900-152    0.421447D+00
   0   374    0.114235-155    0.288985D-56    0.139819-152    0.421447D+00
   0   375    0.263046-156    0.145177D-56    0.335969-153    0.421447D+00
   0   376    0.587553-157    0.728174D-57    0.487123-154    0.421447D+00
   0   377    0.128206-157    0.364658D-57    0.168679-154    0.421447D+00
   0   378    0.295609-158    0.182328D-57    0.230397-155    0.421447D+00
   0   379    0.663620-159    0.910195D-58    0.318906-156    0.421447D+00
   0   380    0.147752-159    0.453661D-58    0.140453-156    0.421447D+00
   0   381    0.338203-160    0.225759D-58    0.120192-157    0.421447D+00
   0   382    0.739988-161    0.112170D-58    0.515383-158    0.421447D+00
   0   383    0.163262-161    0.556449D-59    0.228270-158    0.421447D+00
   0   384    0.363376-162    0.275608D-59    0.197792-159    0.421447D+00
   0   385    0.803126-163    0.136294D-59    0.483520-160    0.421447D+00
   0   386    0.177910-163    0.672944D-60    0.246120-160    0.421447D+00
   0   387    0.393757-164    0.331743D-60    0.437572-161    0.421447D+00
   0   388    0.847994-165    0.163284D-60    0.838935-162    0.421447D+00
   0   389    0.192773-165    0.802429D-61    0.266088-162    0.421447D+00
   0   390    0.418799-166    0.393722D-61    0.361198-163    0.421447D+00
   0   391    0.948432-167    0.192883D-61    0.940547-164    0.421447D+00
   0   392    0.202720-167    0.943446D-62    0.268762-164    0.421447D+00
   0   393    0.452401-168    0.460737D-62    0.590827-165    0.421447D+00
   0   394    0.954621-169    0.224632D-62    0.548893-166    0.421447D+00
   0   395    0.213518-169    0.109304D-62    0.324048-166    0.421447D+00
   0   396    0.460487-170    0.530117D-63    0.622908-167    0.421447D+00
   0   397    0.101121-170    0.254781D-63    0.149096-167    0.421447D+00