variables =  "IG"  "JG"  "PHI"  "Temp."  "Latent_heat"  "mm"
ZONE  I=  401  J=  101
   0     0    0.100000D+01    0.866854D+00    0.000000D+00    0.265461D+00
   0     1    0.100000D+01    0.866854D+00    0.000000D+00    0.265461D+00
   0     2    0.100000D+01    0.867210D+00    0.000000D+00    0.265093D+00
   0     3    0.100000D+01    0.867921D+00    0.000000D+00    0.264353D+00
   0     4    0.100000D+01    0.868985D+00    0.000000D+00    0.263237D+00
   0     5    0.100000D+01    0.870396D+00    0.000000D+00    0.261738D+00
   0     6    0.100000D+01    0.872150D+00    0.000000D+00    0.259847D+00
   0     7    0.100000D+01    0.874240D+00    0.000000D+00    0.257551D+00
   0     8    0.100000D+01    0.876658D+00    0.000000D+00    0.254836D+00
   0     9    0.100000D+01    0.879395D+00    0.000000D+00    0.251685D+00
   0    10    0.100000D+01    0.882439D+00    0.000000D+00    0.248077D+00
   0    11    0.100000D+01    0.885781D+00    0.000000D+00    0.243991D+00
   0    12    0.100000D+01    0.889408D+00    0.000000D+00    0.239400D+00
   0    13    0.100000D+01    0.893306D+00    0.000000D+00    0.234278D+00
   0    14    0.100000D+01    0.897463D+00    0.000000D+00    0.228591D+00
   0    15    0.100000D+01    0.901864D+00    0.000000D+00    0.222307D+00
   0    16    0.100000D+01    0.906496D+00    0.000000D+00    0.215389D+00
   0    17    0.100000D+01    0.911346D+00    0.000000D+00    0.207794D+00
   0    18    0.100000D+01    0.916400D+00    0.399680D-10    0.199481D+00
   0    19    0.100000D+01    0.921648D+00    0.532907D-10    0.190400D+00
   0    20    0.100000D+01    0.927081D+00   -0.159872D-09    0.180499D+00
   0    21    0.100000D+01    0.932693D+00   -0.142686D-07    0.169719D+00
   0    22    0.100000D+01    0.938483D+00   -0.291500D-07    0.157994D+00
   0    23    0.100000D+01    0.944455D+00    0.254463D-07    0.145251D+00
   0    24    0.100000D+01    0.950619D+00    0.274496D-05    0.131405D+00
   0    25    0.100000D+01    0.956992D+00    0.213695D-04    0.116359D+00
   0    26    0.999999D+00    0.963601D+00    0.150953D-04    0.100004D+00
   0    27    0.999996D+00    0.970486D+00   -0.490756D-03    0.822138D-01
   0    28    0.999973D+00    0.977704D+00   -0.519982D-02    0.628405D-01
   0    29    0.999814D+00    0.985333D+00    0.133347D-01    0.417151D-01
   0    30    0.998797D+00    0.993489D+00   -0.418108D+00    0.186178D-01
   0    31    0.992396D+00    0.100251D+01    0.431736D+01   -0.715317D-02
   0    32    0.954920D+00    0.101309D+01    0.114752D+02   -0.370607D-01
   0    33    0.766993D+00    0.102255D+01   -0.451845D+02   -0.643838D-01
   0    34    0.218845D+00    0.102720D+01   -0.575873D+02   -0.730377D-01
   0    35    0.488170D-01    0.102859D+01    0.558284D+01   -0.806489D-01
   0    36    0.159520D-01    0.102233D+01    0.493689D+01   -0.623842D-01
   0    37    0.904524D-02    0.101754D+01    0.367138D+01   -0.496321D-01
   0    38    0.859945D-02    0.101375D+01   -0.454307D+01   -0.391952D-01
   0    39    0.902329D-02    0.101046D+01    0.296856D+01   -0.297417D-01
   0    40    0.950789D-02    0.100891D+01   -0.225876D+01   -0.255677D-01
   0    41    0.978432D-02    0.100751D+01    0.379846D+00   -0.217039D-01
   0    42    0.103114D-01    0.100659D+01    0.250429D+01   -0.186070D-01
   0    43    0.108103D-01    0.100531D+01   -0.470766D+01   -0.149058D-01
   0    44    0.109313D-01    0.100504D+01   -0.663541D+01   -0.146662D-01
   0    45    0.109926D-01    0.100401D+01   -0.120981D+01   -0.109279D-01
   0    46    0.114403D-01    0.100380D+01    0.219765D+01   -0.105172D-01
   0    47    0.115086D-01    0.100363D+01    0.139323D+01   -0.105569D-01
   0    48    0.118457D-01    0.100343D+01   -0.632192D+01   -0.101166D-01
   0    49    0.119206D-01    0.100243D+01   -0.758004D+01   -0.695414D-02
   0    50    0.120863D-01    0.100274D+01   -0.524887D+00   -0.721288D-02
   0    51    0.122266D-01    0.100318D+01   -0.527399D+01   -0.873043D-02
   0    52    0.119731D-01    0.100252D+01    0.276179D+01   -0.683322D-02
   0    53    0.124741D-01    0.100142D+01   -0.328664D+01   -0.393203D-02
   0    54    0.128384D-01    0.100090D+01   -0.549677D+01   -0.305194D-02
   0    55    0.130312D-01    0.100141D+01    0.256043D+01   -0.411530D-02
   0    56    0.130440D-01    0.100035D+01   -0.173531D+01   -0.348541D-03
   0    57    0.134472D-01    0.100031D+01   -0.790110D+01   -0.369406D-03
   0    58    0.136361D-01    0.999724D+00   -0.488390D+01    0.462943D-03
   0    59    0.136345D-01    0.100070D+01    0.173844D+00   -0.262616D-02
   0    60    0.138033D-01    0.999956D+00    0.339467D+01   -0.578627D-03
   0    61    0.141460D-01    0.100072D+01    0.999459D+00   -0.252500D-02
   0    62    0.139333D-01    0.999632D+00   -0.597982D+01    0.123606D-02
   0    63    0.138780D-01    0.998324D+00   -0.397495D+01    0.493171D-02
   0    64    0.139412D-01    0.997082D+00    0.408149D+01    0.798643D-02
   0    65    0.140745D-01    0.998169D+00    0.173993D+01    0.566090D-02
   0    66    0.140496D-01    0.999277D+00   -0.298712D+01    0.180846D-02
   0    67    0.148160D-01    0.998175D+00   -0.556927D+00    0.541409D-02
   0    68    0.149293D-01    0.998342D+00   -0.177716D+00    0.531928D-02
   0    69    0.143726D-01    0.998810D+00    0.873200D+01    0.388947D-02
   0    70    0.141551D-01    0.998858D+00    0.964772D+01    0.302499D-02
   0    71    0.145936D-01    0.998186D+00    0.418440D+01    0.555728D-02
   0    72    0.146095D-01    0.997978D+00   -0.435874D+01    0.507221D-02
   0    73    0.139408D-01    0.997684D+00   -0.158934D+01    0.665348D-02
   0    74    0.144881D-01    0.997660D+00   -0.302148D+01    0.696281D-02
   0    75    0.144944D-01    0.997648D+00    0.250665D+01    0.655048D-02
   0    76    0.145252D-01    0.998063D+00   -0.460952D+01    0.570957D-02
   0    77    0.143155D-01    0.997679D+00    0.644242D+01    0.658466D-02
   0    78    0.143490D-01    0.997763D+00   -0.457939D+01    0.636439D-02
   0    79    0.145131D-01    0.998294D+00   -0.159132D+01    0.529346D-02
   0    80    0.145237D-01    0.997967D+00   -0.599197D+01    0.521358D-02
   0    81    0.146624D-01    0.998032D+00   -0.122401D+01    0.508114D-02
   0    82    0.143944D-01    0.998008D+00   -0.159208D+01    0.505279D-02
   0    83    0.144602D-01    0.997400D+00   -0.163942D+01    0.788140D-02
   0    84    0.147450D-01    0.997858D+00    0.100457D+01    0.571685D-02
   0    85    0.144830D-01    0.997995D+00    0.585885D+01    0.602220D-02
   0    86    0.143786D-01    0.997242D+00   -0.473246D+01    0.732435D-02
   0    87    0.141417D-01    0.997338D+00    0.274889D+01    0.733741D-02
   0    88    0.142752D-01    0.997928D+00    0.699111D+00    0.596026D-02
   0    89    0.142306D-01    0.998062D+00    0.788139D+01    0.509985D-02
   0    90    0.144809D-01    0.997545D+00    0.787467D+01    0.768750D-02
   0    91    0.146079D-01    0.998891D+00   -0.853874D+00    0.347770D-02
   0    92    0.141407D-01    0.997862D+00   -0.519123D+01    0.658154D-02
   0    93    0.149770D-01    0.997832D+00   -0.353475D+01    0.639370D-02
   0    94    0.144503D-01    0.996486D+00    0.708509D+01    0.103260D-01
   0    95    0.142137D-01    0.995699D+00    0.607795D+01    0.127786D-01
   0    96    0.145391D-01    0.997063D+00    0.348242D+01    0.884684D-02
   0    97    0.146478D-01    0.997447D+00    0.178897D+01    0.811847D-02
   0    98    0.144144D-01    0.997650D+00   -0.184697D+01    0.731096D-02
   0    99    0.146304D-01    0.997872D+00    0.473609D+01    0.569965D-02
   0   100    0.146169D-01    0.997819D+00    0.112033D+00    0.589412D-02
   0   101    0.143729D-01    0.998512D+00   -0.628768D+01    0.470923D-02
   0   102    0.141475D-01    0.997277D+00   -0.654374D+01    0.833897D-02
   0   103    0.144069D-01    0.996227D+00    0.676400D+01    0.104142D-01
   0   104    0.144635D-01    0.997707D+00    0.429715D+01    0.679007D-02
   0   105    0.149267D-01    0.997548D+00    0.356731D+01    0.713538D-02
   0   106    0.148570D-01    0.997081D+00   -0.471042D+01    0.805154D-02
   0   107    0.145407D-01    0.997854D+00    0.205810D+01    0.541187D-02
   0   108    0.146322D-01    0.998202D+00    0.626176D+01    0.455007D-02
   0   109    0.148405D-01    0.998715D+00   -0.291971D+01    0.316922D-02
   0   110    0.150371D-01    0.998134D+00    0.116904D+01    0.556444D-02
   0   111    0.145215D-01    0.997091D+00    0.180793D+01    0.846803D-02
   0   112    0.143803D-01    0.997125D+00   -0.236339D+01    0.874010D-02
   0   113    0.147943D-01    0.997637D+00    0.637184D+01    0.724854D-02
   0   114    0.145137D-01    0.996859D+00    0.842708D+01    0.857269D-02
   0   115    0.149334D-01    0.996874D+00    0.355322D+01    0.914839D-02
   0   116    0.150451D-01    0.997997D+00   -0.478980D+01    0.616712D-02
   0   117    0.145802D-01    0.998966D+00    0.710810D+01    0.300767D-02
   0   118    0.146558D-01    0.999144D+00    0.532508D+01    0.158133D-02
   0   119    0.144733D-01    0.998708D+00    0.564357D+01    0.447307D-02
   0   120    0.146250D-01    0.997783D+00    0.394627D+01    0.571287D-02
   0   121    0.148539D-01    0.997926D+00    0.440134D+01    0.598812D-02
   0   122    0.147963D-01    0.997857D+00    0.680296D+01    0.582535D-02
   0   123    0.143434D-01    0.997358D+00    0.703357D+01    0.823346D-02
   0   124    0.145383D-01    0.997488D+00   -0.719967D+01    0.669310D-02
   0   125    0.144103D-01    0.998808D+00   -0.802569D+01    0.365432D-02
   0   126    0.144351D-01    0.998896D+00    0.495011D+01    0.378827D-02
   0   127    0.139037D-01    0.998823D+00    0.434071D+01    0.368727D-02
   0   128    0.144612D-01    0.998525D+00   -0.861611D+01    0.362755D-02
   0   129    0.145812D-01    0.998022D+00   -0.218268D+00    0.539579D-02
   0   130    0.143246D-01    0.998585D+00    0.901631D+01    0.471985D-02
   0   131    0.146927D-01    0.997481D+00   -0.272648D+01    0.675255D-02
   0   132    0.145517D-01    0.997718D+00    0.731611D+00    0.702134D-02
   0   133    0.141921D-01    0.997984D+00   -0.557192D+01    0.648997D-02
   0   134    0.144170D-01    0.998313D+00   -0.583311D+01    0.483012D-02
   0   135    0.143321D-01    0.998803D+00    0.162589D+01    0.366330D-02
   0   136    0.145047D-01    0.998829D+00   -0.299430D+01    0.269046D-02
   0   137    0.144978D-01    0.998665D+00    0.624585D+01    0.418379D-02
   0   138    0.140937D-01    0.998445D+00    0.599523D+00    0.485844D-02
   0   139    0.140092D-01    0.998909D+00   -0.124295D+01    0.333544D-02
   0   140    0.145914D-01    0.998657D+00    0.801582D+01    0.391719D-02
   0   141    0.145389D-01    0.997730D+00   -0.756346D+01    0.624249D-02
   0   142    0.141331D-01    0.998280D+00   -0.598410D+01    0.547240D-02
   0   143    0.144797D-01    0.999287D+00   -0.405505D+01    0.215365D-02
   0   144    0.143618D-01    0.997881D+00    0.642438D-02    0.638158D-02
   0   145    0.145050D-01    0.999110D+00   -0.549696D+01    0.307741D-02
   0   146    0.147587D-01    0.998976D+00    0.498969D+01    0.278626D-02
   0   147    0.147041D-01    0.998439D+00    0.786101D+01    0.399022D-02
   0   148    0.142422D-01    0.998423D+00    0.284001D+01    0.488117D-02
   0   149    0.140354D-01    0.999126D+00    0.738668D+01    0.231556D-02
   0   150    0.144618D-01    0.996782D+00    0.796280D+01    0.918638D-02
   0   151    0.150010D-01    0.996968D+00   -0.181507D+01    0.847267D-02
   0   152    0.148986D-01    0.997714D+00    0.516035D+01    0.604554D-02
   0   153    0.152732D-01    0.997402D+00   -0.671554D+01    0.714046D-02
   0   154    0.152238D-01    0.996934D+00   -0.421827D+01    0.919620D-02
   0   155    0.152954D-01    0.996013D+00   -0.851829D+01    0.108549D-01
   0   156    0.153362D-01    0.997075D+00   -0.775177D+00    0.849467D-02
   0   157    0.158731D-01    0.995768D+00   -0.454713D+00    0.117060D-01
   0   158    0.163427D-01    0.994379D+00   -0.828895D+01    0.158773D-01
   0   159    0.176022D-01    0.991811D+00    0.142997D+00    0.237233D-01
   0   160    0.187476D-01    0.988160D+00    0.504519D+01    0.334772D-01
   0   161    0.201907D-01    0.981467D+00   -0.136268D+02    0.522291D-01
   0   162    0.215913D-01    0.972860D+00    0.994970D+01    0.761479D-01
   0   163    0.247941D-01    0.957908D+00    0.685997D+01    0.113702D+00
   0   164    0.285333D-01    0.933316D+00   -0.296272D+01    0.169359D+00
   0   165    0.287947D-01    0.897224D+00    0.634126D+01    0.229586D+00
   0   166    0.237947D-01    0.840350D+00    0.116841D+02    0.289931D+00
   0   167    0.159654D-01    0.757771D+00   -0.226462D+01    0.338048D+00
   0   168    0.855004D-02    0.655911D+00    0.211921D+00    0.369086D+00
   0   169    0.379141D-02    0.545611D+00    0.781258D-01    0.388019D+00
   0   170    0.152478D-02    0.438169D+00    0.480087D-01    0.399583D+00
   0   171    0.583105D-03    0.341437D+00    0.695893D+00    0.406859D+00
   0   172    0.210202D-03    0.259183D+00    0.108653D+00    0.411581D+00
   0   173    0.725342D-04    0.192336D+00    0.428556D-01    0.414722D+00
   0   174    0.238294D-04    0.139943D+00    0.255928D-01    0.416848D+00
   0   175    0.775347D-05    0.100076D+00    0.198238D-02    0.418302D+00
   0   176    0.238998D-05    0.704910D-01    0.717761D-03    0.419302D+00
   0   177    0.754094D-06    0.489975D-01    0.459588D-03    0.419989D+00
   0   178    0.227384D-06    0.336644D-01    0.272761D-03    0.420461D+00
   0   179    0.664476D-07    0.228959D-01    0.183535D-04    0.420784D+00
   0   180    0.198905D-07    0.154346D-01    0.207971D-04    0.421003D+00
   0   181    0.578831D-08    0.103247D-01    0.577236D-05    0.421152D+00
   0   182    0.170330D-08    0.686014D-02    0.931966D-06    0.421252D+00
   0   183    0.475336D-09    0.453150D-02    0.261694D-06    0.421318D+00
   0   184    0.143111D-09    0.297805D-02    0.778158D-07    0.421362D+00
   0   185    0.451271D-10    0.194845D-02    0.549324D-08    0.421392D+00
   0   186    0.131952D-10    0.126986D-02    0.137827D-07    0.421411D+00
   0   187    0.409526D-11    0.824804D-03    0.422691D-09    0.421424D+00
   0   188    0.122776D-11    0.534138D-03    0.117921D-08    0.421432D+00
   0   189    0.356096D-12    0.345005D-03    0.759451D-10    0.421437D+00
   0   190    0.104688D-12    0.222333D-03    0.954134D-10    0.421441D+00
   0   191    0.301814D-13    0.142991D-03    0.232810D-10    0.421443D+00
   0   192    0.862456D-14    0.918000D-04    0.849034D-11    0.421444D+00
   0   193    0.236942D-14    0.588434D-04    0.211747D-11    0.421445D+00
   0   194    0.655942D-15    0.376663D-04    0.367259D-12    0.421446D+00
   0   195    0.177896D-15    0.240812D-04    0.108631D-12    0.421446D+00
   0   196    0.485975D-16    0.153791D-04    0.639419D-13    0.421447D+00
   0   197    0.131404D-16    0.981229D-05    0.329778D-14    0.421447D+00
   0   198    0.348635D-17    0.625519D-05    0.275066D-14    0.421447D+00
   0   199    0.923764D-18    0.398459D-05    0.124728D-14    0.421447D+00
   0   200    0.241260D-18    0.253652D-05    0.305080D-15    0.421447D+00
   0   201    0.639407D-19    0.161375D-05    0.591450D-16    0.421447D+00
   0   202    0.170892D-19    0.102614D-05    0.389037D-17    0.421447D+00
   0   203    0.441510D-20    0.652193D-06    0.315263D-17    0.421447D+00
   0   204    0.113655D-20    0.414351D-06    0.908964D-18    0.421447D+00
   0   205    0.298463D-21    0.263149D-06    0.143613D-18    0.421447D+00
   0   206    0.750946D-22    0.167069D-06    0.373709D-19    0.421447D+00
   0   207    0.186793D-22    0.106039D-06    0.230581D-19    0.421447D+00
   0   208    0.462025D-23    0.672859D-07    0.386223D-20    0.421447D+00
   0   209    0.116062D-23    0.426859D-07    0.132085D-20    0.421447D+00
   0   210    0.290422D-24    0.270743D-07    0.217571D-21    0.421447D+00
   0   211    0.715262D-25    0.171693D-07    0.449004D-22    0.421447D+00
   0   212    0.179479D-25    0.108862D-07    0.231919D-22    0.421447D+00
   0   213    0.441161D-26    0.690136D-08    0.649884D-23    0.421447D+00
   0   214    0.109762D-26    0.437458D-08    0.144516D-23    0.421447D+00
   0   215    0.270724D-27    0.277259D-08    0.970470D-25    0.421447D+00
   0   216    0.651476D-28    0.175706D-08    0.662646D-25    0.421447D+00
   0   217    0.159570D-28    0.111338D-08    0.578435D-26    0.421447D+00
   0   218    0.398455D-29    0.705434D-09    0.279264D-26    0.421447D+00
   0   219    0.101694D-29    0.446923D-09    0.944709D-27    0.421447D+00
   0   220    0.242831D-30    0.283122D-09    0.759882D-28    0.421447D+00
   0   221    0.600201D-31    0.179342D-09    0.433013D-28    0.421447D+00
   0   222    0.145989D-31    0.113594D-09    0.120527D-28    0.421447D+00
   0   223    0.342810D-32    0.719453D-10    0.304426D-29    0.421447D+00
   0   224    0.843913D-33    0.455638D-10    0.953552D-30    0.421447D+00
   0   225    0.211193D-33    0.288542D-10    0.282349D-30    0.421447D+00
   0   226    0.503850D-34    0.182715D-10    0.236379D-31    0.421447D+00
   0   227    0.118517D-34    0.115694D-10    0.976279D-32    0.421447D+00
   0   228    0.292820D-35    0.732532D-11    0.127029D-32    0.421447D+00
   0   229    0.683854D-36    0.463786D-11    0.478813D-33    0.421447D+00
   0   230    0.165995D-36    0.293620D-11    0.182047D-33    0.421447D+00
   0   231    0.402027D-37    0.185880D-11    0.192714D-34    0.421447D+00
   0   232    0.951242D-38    0.117668D-11    0.627176D-35    0.421447D+00
   0   233    0.228690D-38    0.744839D-12    0.160454D-35    0.421447D+00
   0   234    0.550587D-39    0.471461D-12    0.292170D-36    0.421447D+00
   0   235    0.130540D-39    0.298408D-12    0.941852D-37    0.421447D+00
   0   236    0.309463D-40    0.188866D-12    0.315926D-37    0.421447D+00
   0   237    0.746303D-41    0.119531D-12    0.108343D-37    0.421447D+00
   0   238    0.176324D-41    0.756463D-13    0.173193D-38    0.421447D+00
   0   239    0.432121D-42    0.478715D-13    0.345160D-39    0.421447D+00
   0   240    0.102800D-42    0.302934D-13    0.557136D-40    0.421447D+00
   0   241    0.247978D-43    0.191691D-13    0.360078D-40    0.421447D+00
   0   242    0.608629D-44    0.121294D-13    0.199509D-41    0.421447D+00
   0   243    0.147780D-44    0.767465D-14    0.815246D-42    0.421447D+00
   0   244    0.354381D-45    0.485582D-14    0.208299D-42    0.421447D+00
   0   245    0.818889D-46    0.307221D-14    0.928338D-43    0.421447D+00
   0   246    0.191921D-46    0.194367D-14    0.295533D-43    0.421447D+00
   0   247    0.474207D-47    0.122965D-14    0.931832D-45    0.421447D+00
   0   248    0.111758D-47    0.777900D-15    0.743710D-45    0.421447D+00
   0   249    0.273413D-48    0.492099D-15    0.226670D-45    0.421447D+00
   0   250    0.648505D-49    0.311291D-15    0.228484D-46    0.421447D+00
   0   251    0.152869D-49    0.196910D-15    0.527958D-47    0.421447D+00
   0   252    0.367589D-50    0.124554D-15    0.201225D-47    0.421447D+00
   0   253    0.892801D-51    0.787829D-16    0.117878D-47    0.421447D+00
   0   254    0.209995D-51    0.498305D-16    0.196952D-48    0.421447D+00
   0   255    0.496225D-52    0.315171D-16    0.380043D-49    0.421447D+00
   0   256    0.117194D-52    0.199336D-16    0.141592D-49    0.421447D+00
   0   257    0.274887D-53    0.126071D-16    0.401354D-50    0.421447D+00
   0   258    0.667080D-54    0.797319D-17    0.545293D-51    0.421447D+00
   0   259    0.157003D-54    0.504242D-17    0.939698D-52    0.421447D+00
   0   260    0.376758D-55    0.318887D-17    0.229343D-52    0.421447D+00
   0   261    0.898713D-56    0.201661D-17    0.110884D-52    0.421447D+00
   0   262    0.207262D-56    0.127526D-17    0.306473D-53    0.421447D+00
   0   263    0.482551D-57    0.806430D-18    0.467703D-54    0.421447D+00
   0   264    0.115248D-57    0.509946D-18    0.645373D-55    0.421447D+00
   0   265    0.275364D-58    0.322457D-18    0.383132D-55    0.421447D+00
   0   266    0.663132D-59    0.203896D-18    0.880903D-56    0.421447D+00
   0   267    0.158310D-59    0.128925D-18    0.116873D-56    0.421447D+00
   0   268    0.375629D-60    0.815184D-19    0.454677D-57    0.421447D+00
   0   269    0.892373D-61    0.515423D-19    0.690875D-58    0.421447D+00
   0   270    0.210114D-61    0.325883D-19    0.258590D-58    0.421447D+00
   0   271    0.496768D-62    0.206038D-19    0.619491D-59    0.421447D+00
   0   272    0.116627D-62    0.130263D-19    0.112000D-59    0.421447D+00
   0   273    0.279263D-63    0.823540D-20    0.146626D-60    0.421447D+00
   0   274    0.651962D-64    0.520636D-20    0.870914D-61    0.421447D+00
   0   275    0.151405D-64    0.329132D-20    0.191344D-61    0.421447D+00
   0   276    0.366755D-65    0.208061D-20    0.320120D-62    0.421447D+00
   0   277    0.874600D-66    0.131521D-20    0.423483D-63    0.421447D+00
   0   278    0.206097D-66    0.831343D-21    0.257656D-63    0.421447D+00
   0   279    0.471504D-67    0.525470D-21    0.719611D-64    0.421447D+00
   0   280    0.111759D-67    0.332119D-21    0.130073D-64    0.421447D+00
   0   281    0.269150D-68    0.209903D-21    0.151962D-65    0.421447D+00
   0   282    0.629509D-69    0.132653D-21    0.728656D-66    0.421447D+00
   0   283    0.145369D-69    0.838278D-22    0.178090D-66    0.421447D+00
   0   284    0.346549D-70    0.529700D-22    0.129318D-67    0.421447D+00
   0   285    0.856935D-71    0.334688D-22    0.724553D-68    0.421447D+00
   0   286    0.199656D-71    0.211453D-22    0.569908D-69    0.421447D+00
   0   287    0.468609D-72    0.133583D-22    0.479107D-69    0.421447D+00
   0   288    0.109893D-72    0.843813D-23    0.715913D-70    0.421447D+00
   0   289    0.254061D-73    0.532962D-23    0.285268D-70    0.421447D+00
   0   290    0.594431D-74    0.336587D-23    0.591982D-71    0.421447D+00
   0   291    0.141214D-74    0.212542D-23    0.190392D-71    0.421447D+00
   0   292    0.338593D-75    0.134195D-23    0.218959D-72    0.421447D+00
   0   293    0.805280D-76    0.847158D-24    0.323648D-73    0.421447D+00
   0   294    0.192840D-76    0.534720D-24    0.631345D-74    0.421447D+00
   0   295    0.450880D-77    0.337457D-24    0.459751D-74    0.421447D+00
   0   296    0.106353D-77    0.212928D-24    0.135535D-74    0.421447D+00
   0   297    0.246515D-78    0.134328D-24    0.351792D-75    0.421447D+00
   0   298    0.589535D-79    0.847249D-25    0.751925D-76    0.421447D+00
   0   299    0.142263D-79    0.534273D-25    0.155292D-76    0.421447D+00
   0   300    0.334428D-80    0.336834D-25    0.852495D-78    0.421447D+00
   0   301    0.774184D-81    0.212306D-25    0.805157D-78    0.421447D+00
   0   302    0.180092D-81    0.133782D-25    0.156069D-78    0.421447D+00
   0   303    0.411893D-82    0.842782D-26    0.633948D-79    0.421447D+00
   0   304    0.977515D-83    0.530771D-26    0.635344D-80    0.421447D+00
   0   305    0.235330D-83    0.334169D-26    0.184861D-80    0.421447D+00
   0   306    0.554911D-84    0.210323D-26    0.412541D-81    0.421447D+00
   0   307    0.129641D-84    0.132331D-26    0.185624D-81    0.421447D+00
   0   308    0.306076D-85    0.832305D-27    0.256944D-82    0.421447D+00
   0   309    0.705665D-86    0.523291D-27    0.846945D-83    0.421447D+00
   0   310    0.160875D-86    0.328878D-27    0.197599D-83    0.421447D+00
   0   311    0.392670D-87    0.206610D-27    0.254860D-84    0.421447D+00
   0   312    0.907543D-88    0.129743D-27    0.560862D-85    0.421447D+00
   0   313    0.218889D-88    0.814379D-28    0.630839D-86    0.421447D+00
   0   314    0.526252D-89    0.510940D-28    0.399058D-86    0.421447D+00
   0   315    0.123660D-89    0.320411D-28    0.793978D-87    0.421447D+00
   0   316    0.288599D-90    0.200831D-28    0.138023D-87    0.421447D+00
   0   317    0.676138D-91    0.125815D-28    0.680917D-88    0.421447D+00
   0   318    0.163108D-91    0.787781D-29    0.959525D-89    0.421447D+00
   0   319    0.375201D-92    0.492994D-29    0.181976D-89    0.421447D+00
   0   320    0.846767D-93    0.308342D-29    0.131186D-89    0.421447D+00
   0   321    0.203185D-93    0.192740D-29    0.221418D-90    0.421447D+00
   0   322    0.484926D-94    0.120407D-29    0.236719D-91    0.421447D+00
   0   323    0.116885D-94    0.751739D-30    0.149299D-91    0.421447D+00
   0   324    0.282195D-95    0.469036D-30    0.303438D-92    0.421447D+00
   0   325    0.650518D-96    0.292459D-30    0.360589D-93    0.421447D+00
   0   326    0.150396D-96    0.182236D-30    0.128278D-93    0.421447D+00
   0   327    0.362427D-97    0.113478D-30    0.499685D-94    0.421447D+00
   0   328    0.844266D-98    0.706126D-31    0.309328D-95    0.421447D+00
   0   329    0.201223D-98    0.439082D-31    0.177974D-95    0.421447D+00
   0   330    0.473588D-99    0.272831D-31    0.517968D-96    0.421447D+00
   0   331    0.110329D-99    0.169402D-31    0.117209D-96    0.421447D+00
   0   332    0.258788-100    0.105103D-31    0.296972D-97    0.421447D+00
   0   333    0.623198-101    0.651596D-32    0.719339D-98    0.421447D+00
   0   334    0.144728-101    0.403645D-32    0.165418D-98    0.421447D+00
   0   335    0.345005-102    0.249847D-32    0.329472D-99    0.421447D+00
   0   336    0.793237-103    0.154524D-32    0.951330-100    0.421447D+00
   0   337    0.190179-103    0.954900D-33    0.143651-100    0.421447D+00
   0   338    0.459087-104    0.589599D-33    0.312065-101    0.421447D+00
   0   339    0.108163-104    0.363736D-33    0.135550-101    0.421447D+00
   0   340    0.249386-105    0.224203D-33    0.206033-102    0.421447D+00
   0   341    0.613204-106    0.138075D-33    0.569679-103    0.421447D+00
   0   342    0.141873-106    0.849581D-34    0.879500-104    0.421447D+00
   0   343    0.333674-107    0.522281D-34    0.320700-104    0.421447D+00
   0   344    0.776034-108    0.320782D-34    0.672983-105    0.421447D+00
   0   345    0.184490-108    0.196841D-34    0.145804-105    0.421447D+00
   0   346    0.436475-109    0.120676D-34    0.517017-106    0.421447D+00
   0   347    0.102299-109    0.739120D-35    0.481407-107    0.421447D+00
   0   348    0.245351-110    0.452270D-35    0.197576-107    0.421447D+00
   0   349    0.564231-111    0.276481D-35    0.430606-108    0.421447D+00
   0   350    0.129355-111    0.168855D-35    0.171218-108    0.421447D+00
   0   351    0.298882-112    0.103024D-35    0.369284-109    0.421447D+00
   0   352    0.698970-113    0.627964D-36    0.983408-110    0.421447D+00
   0   353    0.165979-113    0.382385D-36    0.965736-111    0.421447D+00
   0   354    0.392449-114    0.232612D-36    0.463362-111    0.421447D+00
   0   355    0.943527-115    0.141360D-36    0.606949-112    0.421447D+00
   0   356    0.217772-115    0.858186D-37    0.194076-112    0.421447D+00
   0   357    0.514860-116    0.520465D-37    0.344091-113    0.421447D+00
   0   358    0.118509-116    0.315323D-37    0.794841-114    0.421447D+00
   0   359    0.275178-117    0.190840D-37    0.324988-114    0.421447D+00
   0   360    0.645309-118    0.115380D-37    0.940109-115    0.421447D+00
   0   361    0.153694-118    0.696850D-38    0.867694-116    0.421447D+00
   0   362    0.377141-119    0.420426D-38    0.387747-116    0.421447D+00
   0   363    0.880851-120    0.253384D-38    0.115570-116    0.421447D+00
   0   364    0.204137-120    0.152548D-38    0.756852-118    0.421447D+00
   0   365    0.486991-121    0.917425D-39    0.494449-118    0.421447D+00
   0   366    0.111338-121    0.551146D-39    0.586236-119    0.421447D+00
   0   367    0.265022-122    0.330746D-39    0.168225-119    0.421447D+00
   0   368    0.611916-123    0.198268D-39    0.667844-120    0.421447D+00
   0   369    0.143759-123    0.118723D-39    0.662738-121    0.421447D+00
   0   370    0.326923-124    0.710142D-40    0.161578-121    0.421447D+00
   0   371    0.769157-125    0.424305D-40    0.724810-122    0.421447D+00
   0   372    0.183697-125    0.253240D-40    0.237989-122    0.421447D+00
   0   373    0.444020-126    0.150976D-40    0.307462-123    0.421447D+00
   0   374    0.103909-126    0.899086D-41    0.119864-123    0.421447D+00
   0   375    0.238380-127    0.534825D-41    0.114188-124    0.421447D+00
   0   376    0.543959-128    0.317788D-41    0.576664-125    0.421447D+00
   0   377    0.129501-128    0.188616D-41    0.153924-125    0.421447D+00
   0   378    0.301142-129    0.111823D-41    0.162865-126    0.421447D+00
   0   379    0.698852-130    0.662208D-42    0.960583-127    0.421447D+00
   0   380    0.164661-130    0.391713D-42    0.732874-128    0.421447D+00
   0   381    0.385346-131    0.231447D-42    0.343960-128    0.421447D+00
   0   382    0.916632-132    0.136597D-42    0.461430-129    0.421447D+00
   0   383    0.213644-132    0.805268D-43    0.170265-129    0.421447D+00
   0   384    0.507342-133    0.474181D-43    0.478656-130    0.421447D+00
   0   385    0.118696-133    0.278902D-43    0.139991-130    0.421447D+00
   0   386    0.283128-134    0.163856D-43    0.925846-132    0.421447D+00
   0   387    0.655871-135    0.961563D-44    0.921140-132    0.421447D+00
   0   388    0.154649-135    0.563629D-44    0.155862-132    0.421447D+00
   0   389    0.366410-136    0.329996D-44    0.461943-133    0.421447D+00
   0   390    0.851463-137    0.192984D-44    0.328478-134    0.421447D+00
   0   391    0.200037-137    0.112726D-44    0.139436-134    0.421447D+00
   0   392    0.469897-138    0.657649D-45    0.537671-135    0.421447D+00
   0   393    0.110358-138    0.383155D-45    0.719698-136    0.421447D+00
   0   394    0.270480-139    0.222836D-45    0.151616-136    0.421447D+00
   0   395    0.629448-140    0.129208D-45    0.562396-137    0.421447D+00
   0   396    0.147092-140    0.744170D-46    0.131426-137    0.421447D+00
   0   397    0.350803-141    0.420860D-46    0.362769-138    0.421447D+00