variables =  "IG"  "JG"  "PHI"  "Temp."  "Latent_heat"  "mm"
ZONE  I=  401  J=  101
   0     0    0.100000D+01    0.910972D+00    0.000000D+00    0.208393D+00
   0     1    0.100000D+01    0.910972D+00    0.000000D+00    0.208393D+00
   0     2    0.100000D+01    0.911152D+00    0.000000D+00    0.208105D+00
   0     3    0.100000D+01    0.911511D+00    0.000000D+00    0.207529D+00
   0     4    0.100000D+01    0.912049D+00    0.000000D+00    0.206663D+00
   0     5    0.100000D+01    0.912764D+00    0.000000D+00    0.205504D+00
   0     6    0.100000D+01    0.913654D+00    0.000000D+00    0.204049D+00
   0     7    0.100000D+01    0.914718D+00    0.000000D+00    0.202295D+00
   0     8    0.100000D+01    0.915952D+00    0.000000D+00    0.200235D+00
   0     9    0.100000D+01    0.917353D+00    0.000000D+00    0.197866D+00
   0    10    0.100000D+01    0.918919D+00    0.000000D+00    0.195180D+00
   0    11    0.100000D+01    0.920645D+00    0.000000D+00    0.192171D+00
   0    12    0.100000D+01    0.922529D+00    0.000000D+00    0.188830D+00
   0    13    0.100000D+01    0.924565D+00    0.000000D+00    0.185149D+00
   0    14    0.100000D+01    0.926749D+00    0.000000D+00    0.181118D+00
   0    15    0.100000D+01    0.929078D+00    0.000000D+00    0.176728D+00
   0    16    0.100000D+01    0.931546D+00    0.000000D+00    0.171967D+00
   0    17    0.100000D+01    0.934150D+00    0.000000D+00    0.166826D+00
   0    18    0.100000D+01    0.936885D+00    0.000000D+00    0.161293D+00
   0    19    0.100000D+01    0.939746D+00    0.000000D+00    0.155354D+00
   0    20    0.100000D+01    0.942730D+00    0.000000D+00    0.149000D+00
   0    21    0.100000D+01    0.945833D+00    0.000000D+00    0.142217D+00
   0    22    0.100000D+01    0.949051D+00    0.266454D-10    0.134993D+00
   0    23    0.100000D+01    0.952381D+00   -0.133227D-10    0.127317D+00
   0    24    0.100000D+01    0.955821D+00    0.199840D-08    0.119177D+00
   0    25    0.100000D+01    0.959370D+00   -0.931255D-08    0.110561D+00
   0    26    0.100000D+01    0.963027D+00   -0.972555D-08    0.101456D+00
   0    27    0.100000D+01    0.966794D+00   -0.325246D-06    0.918452D-01
   0    28    0.100000D+01    0.970679D+00   -0.345360D-05    0.817084D-01
   0    29    0.100000D+01    0.974691D+00   -0.119591D-04    0.710130D-01
   0    30    0.100000D+01    0.978851D+00    0.228788D-03    0.597074D-01
   0    31    0.999998D+00    0.983190D+00   -0.204554D-03    0.477088D-01
   0    32    0.999985D+00    0.987762D+00   -0.591910D-02    0.348859D-01
   0    33    0.999898D+00    0.992647D+00    0.653184D-01    0.210262D-01
   0    34    0.999357D+00    0.997987D+00    0.217721D+00    0.576700D-02
   0    35    0.996091D+00    0.100399D+01    0.232673D+01   -0.114238D-01
   0    36    0.976135D+00    0.101035D+01    0.105443D+02   -0.297408D-01
   0    37    0.863324D+00    0.101940D+01    0.576687D+02   -0.532515D-01
   0    38    0.395246D+00    0.102786D+01    0.643359D+02   -0.784286D-01
   0    39    0.945650D-01    0.102704D+01    0.445730D+02   -0.757857D-01
   0    40    0.259102D-01    0.102333D+01   -0.104705D+02   -0.651381D-01
   0    41    0.109976D-01    0.101853D+01   -0.126916D+01   -0.523321D-01
   0    42    0.853491D-02    0.101401D+01   -0.467491D+01   -0.399266D-01
   0    43    0.893584D-02    0.101094D+01   -0.391596D+01   -0.308371D-01
   0    44    0.100282D-01    0.100797D+01    0.465244D+00   -0.226337D-01
   0    45    0.103314D-01    0.100603D+01    0.248413D+01   -0.175576D-01
   0    46    0.108374D-01    0.100433D+01    0.315979D+01   -0.119834D-01
   0    47    0.108192D-01    0.100443D+01   -0.508358D+01   -0.122522D-01
   0    48    0.116975D-01    0.100367D+01    0.168636D+01   -0.106663D-01
   0    49    0.115960D-01    0.100307D+01   -0.539427D+01   -0.836983D-02
   0    50    0.115661D-01    0.100344D+01    0.698001D+01   -0.954756D-02
   0    51    0.118707D-01    0.100283D+01   -0.505728D+01   -0.853134D-02
   0    52    0.116769D-01    0.100277D+01   -0.487232D+01   -0.752873D-02
   0    53    0.120175D-01    0.100103D+01    0.504377D+01   -0.322770D-02
   0    54    0.123103D-01    0.100202D+01    0.376025D+01   -0.598217D-02
   0    55    0.128675D-01    0.100177D+01    0.635328D+01   -0.510988D-02
   0    56    0.127936D-01    0.100120D+01   -0.452073D+00   -0.297265D-02
   0    57    0.127034D-01    0.100036D+01   -0.269423D+01   -0.872279D-03
   0    58    0.133251D-01    0.999787D+00    0.222835D+01    0.127806D-02
   0    59    0.131228D-01    0.999917D+00    0.278597D+01    0.733610D-03
   0    60    0.131781D-01    0.999771D+00   -0.775458D+00    0.101067D-03
   0    61    0.135909D-01    0.999105D+00   -0.283216D+01    0.205976D-02
   0    62    0.139310D-01    0.998830D+00    0.744427D+01    0.386773D-02
   0    63    0.137169D-01    0.998585D+00    0.103503D+01    0.419103D-02
   0    64    0.135782D-01    0.998740D+00   -0.398635D+01    0.417879D-02
   0    65    0.139163D-01    0.997596D+00   -0.135321D+01    0.643151D-02
   0    66    0.140967D-01    0.998366D+00   -0.266229D+01    0.522633D-02
   0    67    0.140641D-01    0.999091D+00    0.150949D+01    0.288150D-02
   0    68    0.147846D-01    0.997983D+00    0.490530D+01    0.529452D-02
   0    69    0.146320D-01    0.997544D+00    0.135520D+01    0.711440D-02
   0    70    0.141993D-01    0.997630D+00   -0.104895D+01    0.719087D-02
   0    71    0.143244D-01    0.999030D+00    0.227285D+01    0.295887D-02
   0    72    0.149518D-01    0.997657D+00    0.715608D+01    0.658434D-02
   0    73    0.151583D-01    0.997180D+00   -0.494536D+00    0.770806D-02
   0    74    0.151172D-01    0.997271D+00    0.724622D+01    0.804264D-02
   0    75    0.144613D-01    0.997573D+00    0.782178D+01    0.748830D-02
   0    76    0.148435D-01    0.996738D+00   -0.861663D+01    0.901552D-02
   0    77    0.148112D-01    0.996407D+00    0.432694D+01    0.102562D-01
   0    78    0.148165D-01    0.997272D+00    0.407692D+01    0.784383D-02
   0    79    0.146469D-01    0.997455D+00   -0.758008D+01    0.691009D-02
   0    80    0.149240D-01    0.997936D+00    0.193654D+01    0.626030D-02
   0    81    0.148834D-01    0.997195D+00   -0.785352D+01    0.804210D-02
   0    82    0.149072D-01    0.996722D+00    0.728281D+00    0.897232D-02
   0    83    0.149114D-01    0.996514D+00   -0.473088D+01    0.100328D-01
   0    84    0.148446D-01    0.997449D+00    0.592478D+01    0.728818D-02
   0    85    0.146689D-01    0.997395D+00   -0.186455D+01    0.779385D-02
   0    86    0.148949D-01    0.997058D+00    0.701642D+01    0.832783D-02
   0    87    0.150757D-01    0.997873D+00    0.797405D+01    0.614180D-02
   0    88    0.150396D-01    0.996905D+00   -0.201066D+01    0.945200D-02
   0    89    0.153239D-01    0.996523D+00    0.289046D+01    0.103731D-01
   0    90    0.151956D-01    0.995881D+00    0.808566D+01    0.110087D-01
   0    91    0.154970D-01    0.996606D+00   -0.829862D+01    0.984304D-02
   0    92    0.150070D-01    0.996761D+00   -0.624243D+01    0.917178D-02
   0    93    0.151907D-01    0.996575D+00    0.256923D+01    0.996182D-02
   0    94    0.147909D-01    0.995842D+00    0.654843D+01    0.120121D-01
   0    95    0.150171D-01    0.996108D+00   -0.732565D+01    0.119465D-01
   0    96    0.154820D-01    0.996177D+00   -0.745378D+01    0.106543D-01
   0    97    0.153798D-01    0.996408D+00   -0.686094D+01    0.960742D-02
   0    98    0.151348D-01    0.997717D+00   -0.683599D+01    0.623731D-02
   0    99    0.153703D-01    0.997457D+00   -0.583835D-01    0.663431D-02
   0   100    0.149993D-01    0.995927D+00    0.143100D+01    0.119047D-01
   0   101    0.153098D-01    0.996532D+00    0.736327D+01    0.104238D-01
   0   102    0.154072D-01    0.995536D+00    0.414464D+01    0.133205D-01
   0   103    0.153883D-01    0.995331D+00    0.525154D+01    0.127142D-01
   0   104    0.151945D-01    0.996420D+00    0.529495D+01    0.105360D-01
   0   105    0.147747D-01    0.995922D+00   -0.668500D+01    0.112952D-01
   0   106    0.149583D-01    0.996990D+00   -0.257870D+01    0.817511D-02
   0   107    0.149311D-01    0.996260D+00   -0.174899D+01    0.115142D-01
   0   108    0.152625D-01    0.995522D+00   -0.502151D+01    0.132284D-01
   0   109    0.152287D-01    0.995196D+00    0.112383D+00    0.143093D-01
   0   110    0.151243D-01    0.995768D+00   -0.847385D+01    0.125169D-01
   0   111    0.151766D-01    0.996150D+00    0.238354D+01    0.116931D-01
   0   112    0.150467D-01    0.996008D+00   -0.286825D+01    0.112006D-01
   0   113    0.150209D-01    0.995715D+00    0.739634D+01    0.125416D-01
   0   114    0.152978D-01    0.995976D+00   -0.787427D+01    0.114039D-01
   0   115    0.155398D-01    0.996105D+00    0.810722D+01    0.105860D-01
   0   116    0.154969D-01    0.996692D+00    0.614444D+01    0.915180D-02
   0   117    0.156210D-01    0.997994D+00   -0.532148D+00    0.644836D-02
   0   118    0.153961D-01    0.996288D+00    0.543116D+01    0.100407D-01
   0   119    0.156571D-01    0.997207D+00    0.200617D+01    0.744465D-02
   0   120    0.158197D-01    0.997027D+00    0.717570D+01    0.830148D-02
   0   121    0.155435D-01    0.996477D+00   -0.698395D+01    0.926913D-02
   0   122    0.151682D-01    0.996443D+00   -0.292539D+01    0.107450D-01
   0   123    0.149865D-01    0.996680D+00   -0.742367D+01    0.100271D-01
   0   124    0.152134D-01    0.996074D+00   -0.740977D+01    0.118650D-01
   0   125    0.153805D-01    0.997302D+00   -0.454317D+01    0.776788D-02
   0   126    0.150903D-01    0.996151D+00    0.450023D+01    0.109804D-01
   0   127    0.154576D-01    0.995894D+00    0.448238D+01    0.111094D-01
   0   128    0.151889D-01    0.996751D+00   -0.596216D+01    0.975402D-02
   0   129    0.154342D-01    0.997037D+00    0.310625D+01    0.856176D-02
   0   130    0.152393D-01    0.996448D+00   -0.148529D+01    0.104472D-01
   0   131    0.154577D-01    0.996761D+00   -0.207852D+01    0.877344D-02
   0   132    0.157485D-01    0.998108D+00    0.469239D+01    0.487450D-02
   0   133    0.153345D-01    0.997781D+00    0.680519D+01    0.585513D-02
   0   134    0.150146D-01    0.997709D+00    0.893958D+01    0.700311D-02
   0   135    0.149359D-01    0.997060D+00   -0.585973D+00    0.873594D-02
   0   136    0.150881D-01    0.996338D+00   -0.870635D+01    0.985753D-02
   0   137    0.149402D-01    0.996732D+00   -0.594733D+00    0.100359D-01
   0   138    0.149619D-01    0.997126D+00   -0.842390D-01    0.791701D-02
   0   139    0.150812D-01    0.996656D+00    0.415751D+01    0.918828D-02
   0   140    0.156078D-01    0.994770D+00    0.289852D+01    0.147998D-01
   0   141    0.153516D-01    0.996773D+00   -0.442677D+01    0.960059D-02
   0   142    0.151752D-01    0.996344D+00   -0.696087D+01    0.103493D-01
   0   143    0.151870D-01    0.997381D+00   -0.518901D+01    0.813233D-02
   0   144    0.156247D-01    0.996762D+00    0.515416D+01    0.942540D-02
   0   145    0.151633D-01    0.997009D+00   -0.471095D+00    0.827754D-02
   0   146    0.150820D-01    0.997368D+00    0.158140D+01    0.757754D-02
   0   147    0.150364D-01    0.996516D+00    0.303097D+01    0.100821D-01
   0   148    0.147046D-01    0.996012D+00    0.559923D+01    0.115402D-01
   0   149    0.148745D-01    0.997027D+00    0.115710D+01    0.842034D-02
   0   150    0.153848D-01    0.998200D+00    0.754127D+01    0.573969D-02
   0   151    0.148934D-01    0.998254D+00    0.808809D+01    0.468040D-02
   0   152    0.150647D-01    0.997721D+00   -0.621989D+01    0.605680D-02
   0   153    0.151566D-01    0.997008D+00   -0.122947D+00    0.814549D-02
   0   154    0.153045D-01    0.997271D+00   -0.134888D+01    0.819223D-02
   0   155    0.150540D-01    0.997281D+00    0.633160D+01    0.723734D-02
   0   156    0.148288D-01    0.996900D+00    0.845588D+01    0.831981D-02
   0   157    0.148320D-01    0.996810D+00    0.816864D+01    0.854365D-02
   0   158    0.151407D-01    0.996861D+00    0.544856D+01    0.913203D-02
   0   159    0.152978D-01    0.996645D+00    0.391015D+01    0.926099D-02
   0   160    0.148435D-01    0.996534D+00    0.189228D+01    0.990042D-02
   0   161    0.146628D-01    0.997150D+00   -0.799219D+00    0.777143D-02
   0   162    0.148692D-01    0.997175D+00    0.792306D+00    0.858719D-02
   0   163    0.149648D-01    0.997308D+00    0.521010D+00    0.790579D-02
   0   164    0.152532D-01    0.996917D+00    0.192652D+01    0.929217D-02
   0   165    0.149990D-01    0.996895D+00   -0.155873D+01    0.964717D-02
   0   166    0.145625D-01    0.997692D+00    0.627684D+01    0.628095D-02
   0   167    0.144889D-01    0.997424D+00    0.695075D+01    0.734485D-02
   0   168    0.140104D-01    0.997112D+00   -0.277307D+01    0.765470D-02
   0   169    0.145163D-01    0.996509D+00   -0.416035D+01    0.950024D-02
   0   170    0.147537D-01    0.997955D+00   -0.596738D+01    0.606584D-02
   0   171    0.145958D-01    0.997726D+00    0.803306D+01    0.652306D-02
   0   172    0.144055D-01    0.997918D+00   -0.363394D+01    0.646470D-02
   0   173    0.145067D-01    0.997744D+00   -0.156526D+01    0.606768D-02
   0   174    0.144379D-01    0.998116D+00   -0.493270D+00    0.541442D-02
   0   175    0.144250D-01    0.997944D+00    0.460279D+01    0.671694D-02
   0   176    0.145540D-01    0.997305D+00    0.433990D+01    0.701096D-02
   0   177    0.145217D-01    0.998630D+00    0.173866D+01    0.455969D-02
   0   178    0.148061D-01    0.997871D+00   -0.143017D+01    0.539875D-02
   0   179    0.146299D-01    0.998101D+00    0.423963D+01    0.568189D-02
   0   180    0.142670D-01    0.998363D+00    0.220245D+01    0.398113D-02
   0   181    0.141358D-01    0.997028D+00    0.655073D+01    0.843128D-02
   0   182    0.146511D-01    0.997397D+00   -0.249589D+01    0.707646D-02
   0   183    0.143562D-01    0.997971D+00   -0.472475D+01    0.572493D-02
   0   184    0.144041D-01    0.997695D+00   -0.958550D+00    0.683889D-02
   0   185    0.145783D-01    0.998775D+00    0.108420D+01    0.372987D-02
   0   186    0.143883D-01    0.998428D+00   -0.795926D+01    0.408397D-02
   0   187    0.148578D-01    0.998257D+00   -0.299240D+01    0.547492D-02
   0   188    0.142665D-01    0.997720D+00    0.499811D+01    0.671345D-02
   0   189    0.141068D-01    0.997599D+00    0.505994D+01    0.754203D-02
   0   190    0.142535D-01    0.998718D+00   -0.795341D+01    0.291531D-02
   0   191    0.142682D-01    0.998873D+00    0.694349D+01    0.324040D-02
   0   192    0.147026D-01    0.998857D+00    0.253870D+01    0.288673D-02
   0   193    0.144721D-01    0.998550D+00   -0.806025D+01    0.360581D-02
   0   194    0.142353D-01    0.999265D+00    0.494275D+01    0.193266D-02
   0   195    0.142926D-01    0.998223D+00    0.208531D+01    0.560838D-02
   0   196    0.144167D-01    0.998009D+00    0.336493D+01    0.593680D-02
   0   197    0.145168D-01    0.998497D+00   -0.851850D+01    0.403266D-02
   0   198    0.145559D-01    0.997988D+00   -0.760397D+01    0.536426D-02
   0   199    0.139908D-01    0.998023D+00   -0.286049D+01    0.605993D-02
   0   200    0.139446D-01    0.997931D+00   -0.577782D+01    0.578158D-02
   0   201    0.139136D-01    0.998141D+00   -0.700833D+01    0.537939D-02
   0   202    0.140580D-01    0.998958D+00    0.460196D+01    0.343974D-02
   0   203    0.140213D-01    0.998505D+00    0.879785D+00    0.444060D-02
   0   204    0.137790D-01    0.998485D+00   -0.189964D+01    0.502898D-02
   0   205    0.140766D-01    0.997718D+00    0.761258D+01    0.636870D-02
   0   206    0.144619D-01    0.100053D+01   -0.583057D+01   -0.168688D-02
   0   207    0.141923D-01    0.999695D+00    0.917454D+00    0.145435D-02
   0   208    0.143688D-01    0.997784D+00    0.267282D+01    0.653355D-02
   0   209    0.143645D-01    0.998190D+00    0.433530D+01    0.482846D-02
   0   210    0.143266D-01    0.998636D+00    0.548581D+01    0.416842D-02
   0   211    0.143061D-01    0.999641D+00    0.656462D+01    0.136757D-02
   0   212    0.145529D-01    0.998217D+00   -0.277891D+01    0.428919D-02
   0   213    0.140475D-01    0.998009D+00   -0.803260D+01    0.619101D-02
   0   214    0.138860D-01    0.999006D+00   -0.519960D+01    0.337227D-02
   0   215    0.142755D-01    0.998108D+00    0.261532D+01    0.525490D-02
   0   216    0.143071D-01    0.997263D+00   -0.315778D+01    0.749504D-02
   0   217    0.140073D-01    0.998330D+00   -0.181644D+01    0.522772D-02
   0   218    0.135539D-01    0.998939D+00   -0.638017D+01    0.301217D-02
   0   219    0.137228D-01    0.999060D+00   -0.232064D+01    0.280775D-02
   0   220    0.137074D-01    0.997785D+00    0.352113D+01    0.605722D-02
   0   221    0.136596D-01    0.998340D+00    0.789109D+01    0.508138D-02
   0   222    0.135404D-01    0.998483D+00    0.670447D+01    0.484542D-02
   0   223    0.139746D-01    0.997983D+00    0.440933D+01    0.545019D-02
   0   224    0.137389D-01    0.999308D+00   -0.775678D+01    0.182052D-02
   0   225    0.136068D-01    0.999048D+00   -0.255231D+01    0.273809D-02
   0   226    0.137905D-01    0.998919D+00   -0.396081D+01    0.287214D-02
   0   227    0.139611D-01    0.997871D+00    0.537591D-02    0.553105D-02
   0   228    0.140110D-01    0.998328D+00    0.608109D+01    0.536973D-02
   0   229    0.137641D-01    0.998013D+00    0.400574D+01    0.614475D-02
   0   230    0.141456D-01    0.998844D+00   -0.633764D+01    0.316970D-02
   0   231    0.141153D-01    0.998553D+00    0.790368D+00    0.377772D-02
   0   232    0.140964D-01    0.997714D+00   -0.574134D+01    0.647916D-02
   0   233    0.143083D-01    0.998331D+00    0.807487D+01    0.435131D-02
   0   234    0.146424D-01    0.998417D+00    0.445930D+01    0.369869D-02
   0   235    0.145974D-01    0.998212D+00   -0.836986D+01    0.564298D-02
   0   236    0.142447D-01    0.997734D+00    0.490390D+01    0.577209D-02
   0   237    0.140118D-01    0.998349D+00    0.878506D+01    0.497251D-02
   0   238    0.142224D-01    0.997039D+00   -0.716051D+01    0.907718D-02
   0   239    0.146755D-01    0.996694D+00    0.336885D+01    0.947523D-02
   0   240    0.149667D-01    0.995992D+00   -0.311299D+01    0.120016D-01
   0   241    0.152846D-01    0.996654D+00    0.702882D+01    0.921859D-02
   0   242    0.158007D-01    0.995829D+00   -0.777975D+01    0.120762D-01
   0   243    0.162178D-01    0.994708D+00   -0.883469D+01    0.158580D-01
   0   244    0.169395D-01    0.992093D+00   -0.400781D+01    0.218786D-01
   0   245    0.170875D-01    0.991191D+00    0.902872D+01    0.258012D-01
   0   246    0.182330D-01    0.987772D+00   -0.102259D+02    0.341233D-01
   0   247    0.198219D-01    0.983088D+00    0.162894D+01    0.479300D-01
   0   248    0.232093D-01    0.972368D+00    0.115343D+01    0.767050D-01
   0   249    0.266147D-01    0.955614D+00   -0.292364D+01    0.119533D+00
   0   250    0.287322D-01    0.929764D+00    0.165735D+02    0.176377D+00
   0   251    0.283161D-01    0.889827D+00    0.712089D+01    0.239388D+00
   0   252    0.226965D-01    0.826024D+00    0.115218D+02    0.300830D+00
   0   253    0.146240D-01    0.739303D+00    0.965207D+01    0.345287D+00
   0   254    0.736919D-02    0.635346D+00    0.674136D+01    0.373440D+00
   0   255    0.319167D-02    0.525023D+00    0.233751D+01    0.390616D+00
   0   256    0.129355D-02    0.419035D+00    0.112421D+00    0.401209D+00
   0   257    0.476515D-03    0.324688D+00    0.149354D+00    0.407911D+00
   0   258    0.169442D-03    0.245288D+00    0.170879D-01    0.412279D+00
   0   259    0.579944D-04    0.181267D+00    0.723289D-01    0.415194D+00
   0   260    0.195105D-04    0.131407D+00    0.113893D-02    0.417171D+00
   0   261    0.621163D-05    0.936728D-01    0.289875D-02    0.418524D+00
   0   262    0.195933D-05    0.657944D-01    0.194206D-02    0.419455D+00
   0   263    0.603013D-06    0.456167D-01    0.360396D-03    0.420095D+00
   0   264    0.181287D-06    0.312687D-01    0.215861D-03    0.420534D+00
   0   265    0.547435D-07    0.212206D-01    0.161748D-04    0.420833D+00
   0   266    0.161808D-07    0.142762D-01    0.729390D-05    0.421037D+00
   0   267    0.467496D-08    0.953139D-02    0.256483D-05    0.421175D+00
   0   268    0.136149D-08    0.632137D-02    0.690579D-06    0.421267D+00
   0   269    0.396574D-09    0.416822D-02    0.701232D-07    0.421329D+00
   0   270    0.123112D-09    0.273464D-02    0.103050D-06    0.421369D+00
   0   271    0.374685D-10    0.178625D-02    0.450420D-07    0.421396D+00
   0   272    0.114811D-10    0.116232D-02    0.147951D-07    0.421414D+00
   0   273    0.338228D-11    0.753810D-03    0.324386D-08    0.421426D+00
   0   274    0.101595D-11    0.487455D-03    0.541727D-09    0.421433D+00
   0   275    0.293549D-12    0.314415D-03    0.144289D-09    0.421438D+00
   0   276    0.876416D-13    0.202351D-03    0.261412D-10    0.421441D+00
   0   277    0.236048D-13    0.129976D-03    0.318554D-10    0.421443D+00
   0   278    0.670387D-14    0.833440D-04    0.393698D-11    0.421445D+00
   0   279    0.189790D-14    0.533620D-04    0.233923D-11    0.421446D+00
   0   280    0.516786D-15    0.341204D-04    0.670992D-12    0.421446D+00
   0   281    0.143974D-15    0.217916D-04    0.753227D-13    0.421446D+00
   0   282    0.385862D-16    0.139033D-04    0.408449D-13    0.421447D+00
   0   283    0.100386D-16    0.886234D-05    0.600949D-14    0.421447D+00
   0   284    0.271887D-17    0.564457D-05    0.990123D-15    0.421447D+00
   0   285    0.746115D-18    0.359257D-05    0.344509D-15    0.421447D+00
   0   286    0.192933D-18    0.228511D-05    0.156812D-15    0.421447D+00
   0   287    0.508111D-19    0.145268D-05    0.359065D-16    0.421447D+00
   0   288    0.128707D-19    0.923037D-06    0.154211D-16    0.421447D+00
   0   289    0.331723D-20    0.586249D-06    0.116108D-17    0.421447D+00
   0   290    0.827182D-21    0.372204D-06    0.122693D-17    0.421447D+00
   0   291    0.209548D-21    0.236231D-06    0.783511D-19    0.421447D+00
   0   292    0.532197D-22    0.149888D-06    0.669758D-19    0.421447D+00
   0   293    0.142796D-22    0.950790D-07    0.166116D-19    0.421447D+00
   0   294    0.364383D-23    0.602987D-07    0.138114D-20    0.421447D+00
   0   295    0.892422D-24    0.382339D-07    0.706893D-21    0.421447D+00
   0   296    0.218640D-24    0.242391D-07    0.159573D-21    0.421447D+00
   0   297    0.536138D-25    0.153647D-07    0.757078D-22    0.421447D+00
   0   298    0.135655D-25    0.973821D-08    0.163311D-22    0.421447D+00
   0   299    0.337995D-26    0.617147D-08    0.378484D-23    0.421447D+00
   0   300    0.867519D-27    0.391075D-08    0.177080D-24    0.421447D+00
   0   301    0.210755D-27    0.247800D-08    0.167233D-24    0.421447D+00
   0   302    0.520794D-28    0.157005D-08    0.562552D-25    0.421447D+00
   0   303    0.125025D-28    0.994733D-09    0.181254D-25    0.421447D+00
   0   304    0.299360D-29    0.630203D-09    0.183467D-26    0.421447D+00
   0   305    0.747120D-30    0.399246D-09    0.769147D-27    0.421447D+00
   0   306    0.178615D-30    0.252924D-09    0.242646D-27    0.421447D+00
   0   307    0.442975D-31    0.160225D-09    0.445600D-28    0.421447D+00
   0   308    0.108950D-31    0.101500D-09    0.318028D-29    0.421447D+00
   0   309    0.266050D-32    0.642974D-10    0.137752D-29    0.421447D+00
   0   310    0.639787D-33    0.407305D-10    0.421274D-30    0.421447D+00
   0   311    0.156261D-33    0.258015D-10    0.978853D-31    0.421447D+00
   0   312    0.369562D-34    0.163444D-10    0.498110D-31    0.421447D+00
   0   313    0.907597D-35    0.103537D-10    0.993309D-32    0.421447D+00
   0   314    0.216412D-35    0.655872D-11    0.137507D-32    0.421447D+00
   0   315    0.525834D-36    0.415476D-11    0.240121D-33    0.421447D+00
   0   316    0.129894D-36    0.263193D-11    0.125805D-33    0.421447D+00
   0   317    0.319456D-37    0.166727D-11    0.772633D-35    0.421447D+00
   0   318    0.742780D-38    0.105618D-11    0.111409D-34    0.421447D+00
   0   319    0.177814D-38    0.669072D-12    0.518157D-36    0.421447D+00
   0   320    0.424935D-39    0.423848D-12    0.151417D-36    0.421447D+00
   0   321    0.100959D-39    0.268503D-12    0.487723D-37    0.421447D+00
   0   322    0.237196D-40    0.170095D-12    0.278386D-37    0.421447D+00
   0   323    0.582277D-41    0.107754D-12    0.529932D-38    0.421447D+00
   0   324    0.134370D-41    0.682619D-13    0.869250D-39    0.421447D+00
   0   325    0.315145D-42    0.432438D-13    0.386048D-39    0.421447D+00
   0   326    0.741284D-43    0.273949D-13    0.100875D-39    0.421447D+00
   0   327    0.179464D-43    0.173547D-13    0.760417D-41    0.421447D+00
   0   328    0.433899D-44    0.109942D-13    0.393446D-41    0.421447D+00
   0   329    0.102184D-44    0.696483D-14    0.126753D-41    0.421447D+00
   0   330    0.244318D-45    0.441221D-14    0.260492D-42    0.421447D+00
   0   331    0.598039D-46    0.279512D-14    0.623681D-43    0.421447D+00
   0   332    0.142963D-46    0.177069D-14    0.616425D-44    0.421447D+00
   0   333    0.341720D-47    0.112172D-14    0.491600D-44    0.421447D+00
   0   334    0.831243D-48    0.710594D-15    0.783725D-45    0.421447D+00
   0   335    0.196670D-48    0.450150D-15    0.228369D-45    0.421447D+00
   0   336    0.462875D-49    0.285160D-15    0.531655D-46    0.421447D+00
   0   337    0.109470D-49    0.180641D-15    0.964738D-47    0.421447D+00
   0   338    0.262433D-50    0.114430D-15    0.230070D-47    0.421447D+00
   0   339    0.615105D-51    0.724867D-16    0.853911D-48    0.421447D+00
   0   340    0.147296D-51    0.459169D-16    0.207658D-48    0.421447D+00
   0   341    0.345285D-52    0.290858D-16    0.463362D-49    0.421447D+00
   0   342    0.817184D-53    0.184240D-16    0.414569D-50    0.421447D+00
   0   343    0.190182D-53    0.116703D-16    0.260026D-50    0.421447D+00
   0   344    0.450061D-54    0.739221D-17    0.611587D-51    0.421447D+00
   0   345    0.108277D-54    0.468231D-17    0.138155D-51    0.421447D+00
   0   346    0.262173D-55    0.296578D-17    0.165724D-52    0.421447D+00
   0   347    0.621380D-56    0.187850D-17    0.871492D-53    0.421447D+00
   0   348    0.148907D-56    0.118981D-17    0.145066D-53    0.421447D+00
   0   349    0.352530D-57    0.753596D-18    0.111911D-54    0.421447D+00
   0   350    0.812206D-58    0.477300D-18    0.696254D-55    0.421447D+00
   0   351    0.195127D-58    0.302300D-18    0.143231D-55    0.421447D+00
   0   352    0.451409D-59    0.191460D-18    0.674777D-56    0.421447D+00
   0   353    0.105281D-59    0.121258D-18    0.104369D-56    0.421447D+00
   0   354    0.254441D-60    0.767960D-19    0.158422D-57    0.421447D+00
   0   355    0.612043D-61    0.486361D-19    0.724925D-58    0.421447D+00
   0   356    0.144358D-61    0.308016D-19    0.897939D-59    0.421447D+00
   0   357    0.332507D-62    0.195066D-19    0.393760D-59    0.421447D+00
   0   358    0.801126D-63    0.123533D-19    0.891189D-60    0.421447D+00
   0   359    0.192798D-63    0.782312D-20    0.163530D-60    0.421447D+00
   0   360    0.454583D-64    0.495417D-20    0.661620D-61    0.421447D+00
   0   361    0.106065D-64    0.313730D-20    0.943547D-62    0.421447D+00
   0   362    0.251463D-65    0.198672D-20    0.190890D-62    0.421447D+00
   0   363    0.601413D-66    0.125809D-20    0.261890D-63    0.421447D+00
   0   364    0.144138D-66    0.796676D-21    0.194594D-63    0.421447D+00
   0   365    0.342685D-67    0.504484D-21    0.399035D-64    0.421447D+00
   0   366    0.775502D-68    0.319454D-21    0.712265D-65    0.421447D+00
   0   367    0.184638D-68    0.202286D-21    0.237435D-65    0.421447D+00
   0   368    0.433544D-69    0.128091D-21    0.345779D-66    0.421447D+00
   0   369    0.104691D-69    0.811088D-22    0.418485D-67    0.421447D+00
   0   370    0.246351D-70    0.513587D-22    0.288214D-67    0.421447D+00
   0   371    0.584152D-71    0.325204D-22    0.229879D-68    0.421447D+00
   0   372    0.138200D-71    0.205918D-22    0.121373D-68    0.421447D+00
   0   373    0.329607D-72    0.130386D-22    0.415799D-69    0.421447D+00
   0   374    0.778531D-73    0.825591D-23    0.509916D-70    0.421447D+00
   0   375    0.179529D-73    0.522752D-23    0.801884D-71    0.421447D+00
   0   376    0.414418D-74    0.330997D-23    0.164989D-71    0.421447D+00
   0   377    0.977004D-75    0.209580D-23    0.471903D-72    0.421447D+00
   0   378    0.233609D-75    0.132701D-23    0.304554D-72    0.421447D+00
   0   379    0.556357D-76    0.840224D-24    0.743561D-73    0.421447D+00
   0   380    0.135356D-76    0.532003D-24    0.191962D-73    0.421447D+00
   0   381    0.318721D-77    0.336846D-24    0.238279D-74    0.421447D+00
   0   382    0.743896D-78    0.213279D-24    0.228471D-75    0.421447D+00
   0   383    0.179014D-78    0.135040D-24    0.141539D-75    0.421447D+00
   0   384    0.409132D-79    0.855013D-25    0.369891D-76    0.421447D+00
   0   385    0.948214D-80    0.541355D-25    0.132655D-76    0.421447D+00
   0   386    0.227118D-80    0.342760D-25    0.252004D-77    0.421447D+00
   0   387    0.543237D-81    0.217017D-25    0.313832D-78    0.421447D+00
   0   388    0.123527D-81    0.137402D-25    0.101522D-78    0.421447D+00
   0   389    0.295602D-82    0.869933D-26    0.157038D-79    0.421447D+00
   0   390    0.721966D-83    0.550755D-26    0.893367D-80    0.421447D+00
   0   391    0.161737D-83    0.348648D-26    0.256412D-80    0.421447D+00
   0   392    0.393311D-84    0.220653D-26    0.186993D-81    0.421447D+00
   0   393    0.953388D-85    0.139563D-26    0.978741D-82    0.421447D+00
   0   394    0.214903D-85    0.881417D-27    0.213989D-82    0.421447D+00
   0   395    0.522783D-86    0.554573D-27    0.446213D-83    0.421447D+00
   0   396    0.126431D-86    0.345625D-27    0.159624D-83    0.421447D+00
   0   397    0.298140D-87    0.210155D-27    0.140910D-84    0.421447D+00