variables =  "IG"  "JG"  "PHI"  "Temp."  "Latent_heat"  "mm"
ZONE  I=  401  J=  101
   0     0    0.100000D+01    0.819292D+00    0.000000D+00    0.305208D+00
   0     1    0.100000D+01    0.819292D+00    0.000000D+00    0.305208D+00
   0     2    0.100000D+01    0.819872D+00    0.000000D+00    0.304818D+00
   0     3    0.100000D+01    0.821028D+00    0.000000D+00    0.304033D+00
   0     4    0.100000D+01    0.822755D+00    0.000000D+00    0.302848D+00
   0     5    0.100000D+01    0.825044D+00    0.000000D+00    0.301249D+00
   0     6    0.100000D+01    0.827883D+00    0.000000D+00    0.299221D+00
   0     7    0.100000D+01    0.831258D+00    0.000000D+00    0.296744D+00
   0     8    0.100000D+01    0.835153D+00    0.000000D+00    0.293794D+00
   0     9    0.100000D+01    0.839549D+00    0.000000D+00    0.290339D+00
   0    10    0.100000D+01    0.844425D+00    0.000000D+00    0.286344D+00
   0    11    0.100000D+01    0.849757D+00    0.000000D+00    0.281767D+00
   0    12    0.100000D+01    0.855523D+00    0.000000D+00    0.276558D+00
   0    13    0.100000D+01    0.861696D+00    0.000000D+00    0.270661D+00
   0    14    0.100000D+01    0.868250D+00    0.000000D+00    0.264008D+00
   0    15    0.100000D+01    0.875161D+00    0.266454D-10    0.256524D+00
   0    16    0.100000D+01    0.882402D+00   -0.932587D-10    0.248122D+00
   0    17    0.100000D+01    0.889950D+00    0.706102D-09    0.238700D+00
   0    18    0.100000D+01    0.897783D+00   -0.676792D-08    0.228143D+00
   0    19    0.100000D+01    0.905887D+00   -0.221423D-07    0.216317D+00
   0    20    0.100000D+01    0.914251D+00   -0.106821D-06    0.203066D+00
   0    21    0.100000D+01    0.922875D+00   -0.438957D-05    0.188207D+00
   0    22    0.100000D+01    0.931775D+00    0.542787D-04    0.171519D+00
   0    23    0.999999D+00    0.940986D+00    0.172537D-03    0.152733D+00
   0    24    0.999996D+00    0.950573D+00    0.234109D-02    0.131508D+00
   0    25    0.999971D+00    0.960645D+00   -0.100386D-01    0.107410D+00
   0    26    0.999796D+00    0.971372D+00   -0.655317D-01    0.798739D-01
   0    27    0.998602D+00    0.982995D+00   -0.426944D+00    0.482462D-01
   0    28    0.990909D+00    0.995884D+00   -0.284159D+01    0.116767D-01
   0    29    0.945550D+00    0.101095D+01   -0.579570D+01   -0.309009D-01
   0    30    0.712968D+00    0.102547D+01    0.127290D+03   -0.731711D-01
   0    31    0.192034D+00    0.103275D+01   -0.358911D+02   -0.877817D-01
   0    32    0.447562D-01    0.102711D+01   -0.209242D+02   -0.749573D-01
   0    33    0.154925D-01    0.102127D+01    0.774247D+00   -0.599179D-01
   0    34    0.996167D-02    0.101418D+01   -0.571011D+00   -0.407317D-01
   0    35    0.932267D-02    0.101114D+01   -0.116571D+01   -0.315419D-01
   0    36    0.994122D-02    0.100845D+01   -0.291081D+01   -0.245790D-01
   0    37    0.105685D-01    0.100589D+01    0.391008D+01   -0.172426D-01
   0    38    0.110936D-01    0.100563D+01   -0.591865D+01   -0.158376D-01
   0    39    0.111610D-01    0.100455D+01   -0.482994D+01   -0.136743D-01
   0    40    0.110999D-01    0.100453D+01   -0.634422D+01   -0.125912D-01
   0    41    0.115212D-01    0.100413D+01   -0.580744D+01   -0.123485D-01
   0    42    0.115084D-01    0.100447D+01   -0.356185D+01   -0.132685D-01
   0    43    0.115871D-01    0.100289D+01   -0.715264D+01   -0.815798D-02
   0    44    0.118255D-01    0.100336D+01   -0.688933D+01   -0.900924D-02
   0    45    0.118488D-01    0.100270D+01    0.704451D+01   -0.818437D-02
   0    46    0.121406D-01    0.100301D+01    0.277593D+01   -0.795685D-02
   0    47    0.122263D-01    0.100228D+01    0.285558D+01   -0.631968D-02
   0    48    0.123598D-01    0.100193D+01    0.234554D+01   -0.573993D-02
   0    49    0.125045D-01    0.100197D+01   -0.507380D+01   -0.522684D-02
   0    50    0.129673D-01    0.100193D+01   -0.527767D+01   -0.504241D-02
   0    51    0.131698D-01    0.100060D+01    0.295195D+01   -0.216104D-02
   0    52    0.131624D-01    0.999508D+00    0.197560D+01    0.913840D-03
   0    53    0.132563D-01    0.999943D+00   -0.449191D+01    0.590829D-03
   0    54    0.131671D-01    0.999223D+00   -0.481223D+01    0.201247D-02
   0    55    0.133841D-01    0.999567D+00   -0.595994D+01    0.654784D-03
   0    56    0.140610D-01    0.100004D+01   -0.983213D+00    0.430082D-03
   0    57    0.136632D-01    0.999626D+00   -0.333505D+01    0.836075D-03
   0    58    0.137819D-01    0.999603D+00   -0.354150D+01    0.112997D-02
   0    59    0.138312D-01    0.999546D+00    0.643930D+01    0.118626D-02
   0    60    0.137736D-01    0.999278D+00   -0.762082D+01    0.224677D-02
   0    61    0.141071D-01    0.998804D+00   -0.196257D+01    0.327333D-02
   0    62    0.139256D-01    0.998966D+00   -0.496075D+00    0.289182D-02
   0    63    0.139944D-01    0.999197D+00   -0.163460D+01    0.277001D-02
   0    64    0.141399D-01    0.998379D+00   -0.133906D+01    0.462509D-02
   0    65    0.141711D-01    0.998778D+00   -0.457713D+01    0.354253D-02
   0    66    0.143634D-01    0.998382D+00    0.406566D+01    0.526198D-02
   0    67    0.143380D-01    0.997234D+00   -0.558096D+01    0.802147D-02
   0    68    0.139860D-01    0.998713D+00   -0.416964D+00    0.343668D-02
   0    69    0.143091D-01    0.998371D+00    0.475721D+01    0.475465D-02
   0    70    0.138893D-01    0.998366D+00    0.777707D+01    0.401095D-02
   0    71    0.140234D-01    0.997369D+00    0.643682D+01    0.712913D-02
   0    72    0.142207D-01    0.998486D+00   -0.783300D+01    0.477304D-02
   0    73    0.141579D-01    0.997494D+00   -0.858176D+00    0.783788D-02
   0    74    0.139054D-01    0.997706D+00    0.658736D+01    0.610810D-02
   0    75    0.143315D-01    0.998400D+00   -0.502255D+00    0.468434D-02
   0    76    0.140565D-01    0.999260D+00    0.263393D+01    0.248913D-02
   0    77    0.142878D-01    0.999609D+00    0.236578D+01    0.150219D-02
   0    78    0.141144D-01    0.998663D+00    0.391298D+01    0.364735D-02
   0    79    0.139962D-01    0.997704D+00    0.708428D+01    0.688974D-02
   0    80    0.139267D-01    0.998926D+00    0.771883D+01    0.328584D-02
   0    81    0.139866D-01    0.999042D+00    0.145134D+01    0.235064D-02
   0    82    0.134027D-01    0.999070D+00    0.715542D+01    0.279101D-02
   0    83    0.134923D-01    0.999324D+00    0.503064D+01    0.188877D-02
   0    84    0.137301D-01    0.998935D+00    0.213848D+01    0.275813D-02
   0    85    0.137621D-01    0.998857D+00    0.282377D+01    0.351084D-02
   0    86    0.136618D-01    0.998258D+00   -0.144999D+01    0.442091D-02
   0    87    0.139676D-01    0.997846D+00   -0.306513D+01    0.630857D-02
   0    88    0.139490D-01    0.997809D+00   -0.356081D+01    0.665018D-02
   0    89    0.144470D-01    0.997961D+00   -0.710706D+01    0.588423D-02
   0    90    0.143379D-01    0.998209D+00   -0.596396D+01    0.454550D-02
   0    91    0.141691D-01    0.998974D+00    0.666814D+01    0.286892D-02
   0    92    0.139372D-01    0.998683D+00    0.436773D+01    0.328313D-02
   0    93    0.140885D-01    0.999457D+00   -0.323939D+01    0.171065D-02
   0    94    0.136996D-01    0.998495D+00    0.609872D+01    0.495285D-02
   0    95    0.141548D-01    0.998152D+00    0.604477D+01    0.546568D-02
   0    96    0.142629D-01    0.998136D+00   -0.621913D+01    0.475417D-02
   0    97    0.145699D-01    0.997772D+00   -0.757081D+01    0.634945D-02
   0    98    0.147359D-01    0.997758D+00   -0.447619D+01    0.704653D-02
   0    99    0.148569D-01    0.998909D+00    0.256651D+01    0.251618D-02
   0   100    0.142590D-01    0.999562D+00    0.100949D+01    0.156223D-02
   0   101    0.146157D-01    0.997569D+00   -0.697939D+00    0.672549D-02
   0   102    0.147698D-01    0.996503D+00   -0.613425D+00    0.989090D-02
   0   103    0.152541D-01    0.995766D+00   -0.765238D+01    0.124129D-01
   0   104    0.157283D-01    0.994216D+00   -0.810926D+01    0.159856D-01
   0   105    0.157372D-01    0.994592D+00    0.172078D+01    0.154607D-01
   0   106    0.159777D-01    0.994830D+00   -0.685787D+01    0.147136D-01
   0   107    0.157512D-01    0.994492D+00    0.529917D+01    0.163715D-01
   0   108    0.163443D-01    0.993431D+00    0.809291D+01    0.194392D-01
   0   109    0.175881D-01    0.991520D+00   -0.578366D+00    0.246717D-01
   0   110    0.185928D-01    0.986803D+00    0.587409D+01    0.379090D-01
   0   111    0.204691D-01    0.980564D+00    0.794692D+01    0.556540D-01
   0   112    0.230906D-01    0.968604D+00   -0.974796D+01    0.881927D-01
   0   113    0.273394D-01    0.950630D+00    0.721928D+01    0.131108D+00
   0   114    0.282662D-01    0.922170D+00    0.893168D+01    0.189974D+00
   0   115    0.272311D-01    0.876988D+00    0.149925D+02    0.254897D+00
   0   116    0.210235D-01    0.809046D+00   -0.204373D+01    0.312139D+00
   0   117    0.127409D-01    0.717286D+00    0.553655D+01    0.352781D+00
   0   118    0.612119D-02    0.610911D+00   -0.184306D+00    0.378036D+00
   0   119    0.275771D-02    0.500030D+00    0.272586D+01    0.393509D+00
   0   120    0.105625D-02    0.395716D+00    0.100614D+00    0.403057D+00
   0   121    0.390479D-03    0.304231D+00    0.268812D+00    0.409130D+00
   0   122    0.137853D-03    0.228161D+00    0.651431D-01    0.413106D+00
   0   123    0.450518D-04    0.167507D+00    0.543973D-01    0.415763D+00
   0   124    0.151406D-04    0.120720D+00    0.123253D-01    0.417566D+00
   0   125    0.479992D-05    0.856017D-01    0.583116D-02    0.418799D+00
   0   126    0.145239D-05    0.598420D-01    0.190768D-02    0.419646D+00
   0   127    0.440719D-06    0.413161D-01    0.419678D-03    0.420228D+00
   0   128    0.130724D-06    0.282164D-01    0.175456D-03    0.420625D+00
   0   129    0.397652D-07    0.190875D-01    0.698537D-05    0.420896D+00
   0   130    0.115386D-07    0.128054D-01    0.392793D-05    0.421080D+00
   0   131    0.338686D-08    0.852888D-02    0.353727D-05    0.421204D+00
   0   132    0.960804D-09    0.564482D-02    0.874352D-06    0.421286D+00
   0   133    0.270097D-09    0.371551D-02    0.182314D-06    0.421341D+00
   0   134    0.851461D-10    0.243389D-02    0.886955D-08    0.421378D+00
   0   135    0.252105D-10    0.158769D-02    0.245382D-07    0.421402D+00
   0   136    0.773984D-11    0.103191D-02    0.730751D-08    0.421418D+00
   0   137    0.236151D-11    0.668537D-03    0.271641D-08    0.421428D+00
   0   138    0.693862D-12    0.431912D-03    0.664877D-09    0.421435D+00
   0   139    0.204686D-12    0.278356D-03    0.116902D-09    0.421439D+00
   0   140    0.588867D-13    0.179008D-03    0.427002D-10    0.421442D+00
   0   141    0.164545D-13    0.114901D-03    0.907965D-11    0.421444D+00
   0   142    0.453871D-14    0.736293D-04    0.345156D-11    0.421445D+00
   0   143    0.129859D-14    0.471132D-04    0.576080D-12    0.421446D+00
   0   144    0.366333D-15    0.301074D-04    0.153852D-12    0.421446D+00
   0   145    0.102523D-15    0.192180D-04    0.915516D-13    0.421446D+00
   0   146    0.271346D-16    0.122547D-04    0.251938D-13    0.421447D+00
   0   147    0.721038D-17    0.780740D-05    0.786373D-14    0.421447D+00
   0   148    0.191250D-17    0.497010D-05    0.238754D-14    0.421447D+00
   0   149    0.503785D-18    0.316166D-05    0.432185D-15    0.421447D+00
   0   150    0.134477D-18    0.200998D-05    0.481130D-16    0.421447D+00
   0   151    0.343540D-19    0.127710D-05    0.383125D-16    0.421447D+00
   0   152    0.897580D-20    0.811035D-06    0.422302D-17    0.421447D+00
   0   153    0.231011D-20    0.514825D-06    0.166107D-17    0.421447D+00
   0   154    0.580545D-21    0.326668D-06    0.186141D-18    0.421447D+00
   0   155    0.153690D-21    0.207204D-06    0.115812D-18    0.421447D+00
   0   156    0.385100D-22    0.131386D-06    0.182205D-19    0.421447D+00
   0   157    0.995312D-23    0.832867D-07    0.959229D-20    0.421447D+00
   0   158    0.240027D-23    0.527826D-07    0.299446D-20    0.421447D+00
   0   159    0.602250D-24    0.334430D-07    0.294612D-21    0.421447D+00
   0   160    0.147743D-24    0.211850D-07    0.846662D-22    0.421447D+00
   0   161    0.377285D-25    0.134174D-07    0.322657D-22    0.421447D+00
   0   162    0.916560D-26    0.849644D-08    0.909679D-23    0.421447D+00
   0   163    0.226450D-26    0.537945D-08    0.238338D-23    0.421447D+00
   0   164    0.567231D-27    0.340547D-08    0.244163D-24    0.421447D+00
   0   165    0.138790D-27    0.215557D-08    0.642492D-25    0.421447D+00
   0   166    0.340347D-28    0.136426D-08    0.306094D-25    0.421447D+00
   0   167    0.838868D-29    0.863343D-09    0.117794D-25    0.421447D+00
   0   168    0.204426D-29    0.546296D-09    0.276275D-26    0.421447D+00
   0   169    0.506779D-30    0.345648D-09    0.595733D-27    0.421447D+00
   0   170    0.123447D-30    0.218677D-09    0.494545D-28    0.421447D+00
   0   171    0.303916D-31    0.138337D-09    0.892924D-29    0.421447D+00
   0   172    0.729811D-32    0.875069D-10    0.812093D-29    0.421447D+00
   0   173    0.175383D-32    0.553498D-10    0.141603D-29    0.421447D+00
   0   174    0.421235D-33    0.350075D-10    0.294554D-30    0.421447D+00
   0   175    0.103858D-33    0.221401D-10    0.480559D-31    0.421447D+00
   0   176    0.245125D-34    0.140015D-10    0.144882D-31    0.421447D+00
   0   177    0.583534D-35    0.885404D-11    0.701212D-32    0.421447D+00
   0   178    0.137287D-35    0.559869D-11    0.985117D-33    0.421447D+00
   0   179    0.331636D-36    0.354003D-11    0.230463D-33    0.421447D+00
   0   180    0.809224D-37    0.223823D-11    0.252902D-34    0.421447D+00
   0   181    0.195606D-37    0.141508D-11    0.994213D-35    0.421447D+00
   0   182    0.472099D-38    0.894606D-12    0.263992D-35    0.421447D+00
   0   183    0.113817D-38    0.565535D-12    0.822142D-36    0.421447D+00
   0   184    0.275118D-39    0.357489D-12    0.158117D-36    0.421447D+00
   0   185    0.638024D-40    0.225964D-12    0.921521D-37    0.421447D+00
   0   186    0.153625D-40    0.142820D-12    0.132465D-37    0.421447D+00
   0   187    0.371241D-41    0.902634D-13    0.392669D-38    0.421447D+00
   0   188    0.881344D-42    0.570429D-13    0.101746D-38    0.421447D+00
   0   189    0.211381D-42    0.360460D-13    0.635703D-40    0.421447D+00
   0   190    0.510962D-43    0.227759D-13    0.728009D-40    0.421447D+00
   0   191    0.124133D-43    0.143898D-13    0.804492D-41    0.421447D+00
   0   192    0.291074D-44    0.909047D-14    0.409164D-41    0.421447D+00
   0   193    0.673246D-45    0.574208D-14    0.448479D-42    0.421447D+00
   0   194    0.162497D-45    0.362657D-14    0.151662D-42    0.421447D+00
   0   195    0.384941D-46    0.229014D-14    0.145654D-43    0.421447D+00
   0   196    0.941424D-47    0.144597D-14    0.102273D-43    0.421447D+00
   0   197    0.216080D-47    0.912817D-15    0.924280D-45    0.421447D+00
   0   198    0.523356D-48    0.576135D-15    0.273616D-45    0.421447D+00
   0   199    0.123556D-48    0.363558D-15    0.166831D-45    0.421447D+00
   0   200    0.292079D-49    0.229363D-15    0.336084D-46    0.421447D+00
   0   201    0.672234D-50    0.144665D-15    0.100245D-46    0.421447D+00
   0   202    0.159649D-50    0.912182D-16    0.235498D-47    0.421447D+00
   0   203    0.388284D-51    0.575003D-16    0.141530D-48    0.421447D+00
   0   204    0.958899D-52    0.362341D-16    0.555225D-49    0.421447D+00
   0   205    0.219259D-52    0.228250D-16    0.278734D-49    0.421447D+00
   0   206    0.514606D-53    0.143727D-16    0.511941D-50    0.421447D+00
   0   207    0.121942D-53    0.904662D-17    0.150970D-50    0.421447D+00
   0   208    0.286408D-54    0.569172D-17    0.294258D-51    0.421447D+00
   0   209    0.674079D-55    0.357929D-17    0.288259D-52    0.421447D+00
   0   210    0.162439D-55    0.224973D-17    0.157456D-52    0.421447D+00
   0   211    0.389837D-56    0.141329D-17    0.412656D-53    0.421447D+00
   0   212    0.919069D-57    0.887335D-18    0.100882D-53    0.421447D+00
   0   213    0.217398D-57    0.556779D-18    0.701957D-55    0.421447D+00
   0   214    0.514057D-58    0.349142D-18    0.707671D-55    0.421447D+00
   0   215    0.123961D-58    0.218793D-18    0.161132D-55    0.421447D+00
   0   216    0.292203D-59    0.137012D-18    0.339792D-56    0.421447D+00
   0   217    0.694039D-60    0.857370D-19    0.621959D-57    0.421447D+00
   0   218    0.166251D-60    0.536098D-19    0.708566D-58    0.421447D+00
   0   219    0.397190D-61    0.334945D-19    0.121358D-58    0.421447D+00
   0   220    0.938450D-62    0.209094D-19    0.519570D-59    0.421447D+00
   0   221    0.227783D-62    0.130417D-19    0.280106D-59    0.421447D+00
   0   222    0.529541D-63    0.812720D-20    0.636721D-60    0.421447D+00
   0   223    0.123344D-63    0.505993D-20    0.147813D-60    0.421447D+00
   0   224    0.290598D-64    0.314726D-20    0.294122D-61    0.421447D+00
   0   225    0.682921D-65    0.195565D-20    0.101320D-61    0.421447D+00
   0   226    0.163006D-65    0.121398D-20    0.121804D-62    0.421447D+00
   0   227    0.381930D-66    0.752794D-21    0.417527D-63    0.421447D+00
   0   228    0.897420D-67    0.466312D-21    0.120404D-63    0.421447D+00
   0   229    0.207135D-67    0.288535D-21    0.307371D-64    0.421447D+00
   0   230    0.493935D-68    0.178334D-21    0.297517D-65    0.421447D+00
   0   231    0.118211D-68    0.110095D-21    0.902889D-66    0.421447D+00
   0   232    0.277285D-69    0.678879D-22    0.208710D-66    0.421447D+00
   0   233    0.648585D-70    0.418115D-22    0.545851D-67    0.421447D+00
   0   234    0.155766D-70    0.257199D-22    0.159184D-67    0.421447D+00
   0   235    0.357504D-71    0.158016D-22    0.171872D-68    0.421447D+00
   0   236    0.829825D-72    0.969581D-23    0.771795D-69    0.421447D+00
   0   237    0.198305D-72    0.594166D-23    0.849381D-70    0.421447D+00
   0   238    0.475364D-73    0.363634D-23    0.453368D-70    0.421447D+00
   0   239    0.111799D-73    0.222252D-23    0.132264D-70    0.421447D+00
   0   240    0.265012D-74    0.135657D-23    0.171902D-71    0.421447D+00
   0   241    0.629180D-75    0.826891D-24    0.630850D-72    0.421447D+00
   0   242    0.144918D-75    0.503333D-24    0.182188D-72    0.421447D+00
   0   243    0.341384D-76    0.305954D-24    0.182034D-73    0.421447D+00
   0   244    0.783338D-77    0.185714D-24    0.940202D-74    0.421447D+00
   0   245    0.184799D-77    0.112568D-24    0.262797D-74    0.421447D+00
   0   246    0.440197D-78    0.681335D-25    0.598922D-75    0.421447D+00
   0   247    0.104199D-78    0.411789D-25    0.145309D-75    0.421447D+00
   0   248    0.246943D-79    0.248515D-25    0.336893D-76    0.421447D+00
   0   249    0.577993D-80    0.149757D-25    0.202419D-77    0.421447D+00
   0   250    0.135146D-80    0.901107D-26    0.187386D-77    0.421447D+00
   0   251    0.315092D-81    0.541393D-26    0.171333D-78    0.421447D+00
   0   252    0.742732D-82    0.324783D-26    0.775552D-79    0.421447D+00
   0   253    0.172964D-82    0.194541D-26    0.792845D-80    0.421447D+00
   0   254    0.410488D-83    0.116350D-26    0.271112D-80    0.421447D+00
   0   255    0.970702D-84    0.694783D-27    0.698271D-81    0.421447D+00
   0   256    0.223171D-84    0.414248D-27    0.295055D-81    0.421447D+00
   0   257    0.523877D-85    0.246601D-27    0.652513D-82    0.421447D+00
   0   258    0.126218D-85    0.146571D-27    0.441026D-83    0.421447D+00
   0   259    0.302632D-86    0.869798D-28    0.284734D-83    0.421447D+00
   0   260    0.699119D-87    0.515350D-28    0.643247D-84    0.421447D+00
   0   261    0.162605D-87    0.304857D-28    0.637950D-85    0.421447D+00
   0   262    0.394303D-88    0.180052D-28    0.321662D-85    0.421447D+00
   0   263    0.916881D-89    0.106170D-28    0.994951D-86    0.421447D+00
   0   264    0.213615D-89    0.625046D-29    0.281693D-86    0.421447D+00
   0   265    0.512623D-90    0.367384D-29    0.582819D-87    0.421447D+00
   0   266    0.116941D-90    0.215589D-29    0.674443D-88    0.421447D+00
   0   267    0.266092D-91    0.126307D-29    0.356866D-88    0.421447D+00
   0   268    0.653420D-92    0.738791D-30    0.127503D-89    0.421447D+00
   0   269    0.154911D-92    0.431427D-30    0.201259D-89    0.421447D+00
   0   270    0.364550D-93    0.251526D-30    0.436235D-90    0.421447D+00
   0   271    0.858962D-94    0.146402D-30    0.252615D-91    0.421447D+00
   0   272    0.205819D-94    0.850738D-31    0.178446D-91    0.421447D+00
   0   273    0.473208D-95    0.493549D-31    0.414734D-92    0.421447D+00
   0   274    0.109531D-95    0.285856D-31    0.161791D-92    0.421447D+00
   0   275    0.249082D-96    0.165290D-31    0.350259D-93    0.421447D+00
   0   276    0.573646D-97    0.954171D-32    0.711950D-94    0.421447D+00
   0   277    0.135614D-97    0.549902D-32    0.652932D-95    0.421447D+00
   0   278    0.334107D-98    0.316390D-32    0.249782D-95    0.421447D+00
   0   279    0.770338D-99    0.181734D-32    0.539742D-96    0.421447D+00
   0   280    0.180630D-99    0.104214D-32    0.109914D-96    0.421447D+00
   0   281    0.435148-100    0.596613D-33    0.429024D-97    0.421447D+00
   0   282    0.105736-100    0.340982D-33    0.108460D-97    0.421447D+00
   0   283    0.247160-101    0.194556D-33    0.316682D-98    0.421447D+00
   0   284    0.554968-102    0.110823D-33    0.517932D-99    0.421447D+00
   0   285    0.130881-102    0.630215D-34    0.114702D-99    0.421447D+00
   0   286    0.307300-103    0.357781D-34    0.186420-100    0.421447D+00
   0   287    0.736533-104    0.202776D-34    0.442395-101    0.421447D+00
   0   288    0.173345-104    0.114733D-34    0.804089-102    0.421447D+00
   0   289    0.390272-105    0.648077D-35    0.191611-102    0.421447D+00
   0   290    0.913898-106    0.365456D-35    0.676377-103    0.421447D+00
   0   291    0.211812-106    0.205737D-35    0.921724-104    0.421447D+00
   0   292    0.501632-107    0.115627D-35    0.472839-104    0.421447D+00
   0   293    0.118750-107    0.648741D-36    0.143753-104    0.421447D+00
   0   294    0.276499-108    0.363373D-36    0.407909-105    0.421447D+00
   0   295    0.652289-109    0.203189D-36    0.871052-106    0.421447D+00
   0   296    0.152616-109    0.113427D-36    0.176394-106    0.421447D+00
   0   297    0.356735-110    0.632118D-37    0.448357-107    0.421447D+00
   0   298    0.839027-111    0.351679D-37    0.576607-108    0.421447D+00
   0   299    0.201761-111    0.195327D-37    0.157521-108    0.421447D+00
   0   300    0.467366-112    0.108304D-37    0.625158-109    0.421447D+00
   0   301    0.113663-112    0.599502D-38    0.141734-109    0.421447D+00
   0   302    0.263004-113    0.331287D-38    0.202936-110    0.421447D+00
   0   303    0.607030-114    0.182761D-38    0.324542-111    0.421447D+00
   0   304    0.143869-114    0.100654D-38    0.194060-111    0.421447D+00
   0   305    0.335464-115    0.553404D-39    0.131811-112    0.421447D+00
   0   306    0.827124-116    0.303752D-39    0.100596-112    0.421447D+00
   0   307    0.192833-116    0.166442D-39    0.704359-114    0.421447D+00
   0   308    0.433440-117    0.910486D-40    0.325336-114    0.421447D+00
   0   309    0.103773-117    0.497221D-40    0.712672-115    0.421447D+00
   0   310    0.239619-118    0.271076D-40    0.174118-115    0.421447D+00
   0   311    0.580261-119    0.147537D-40    0.434376-116    0.421447D+00
   0   312    0.133556-119    0.801632D-41    0.156937-116    0.421447D+00
   0   313    0.314827-120    0.434827D-41    0.232608-117    0.421447D+00
   0   314    0.756776-121    0.235464D-41    0.743387-118    0.421447D+00
   0   315    0.183260-121    0.127292D-41    0.707675-119    0.421447D+00
   0   316    0.430151-122    0.686977D-42    0.589848-119    0.421447D+00
   0   317    0.983181-123    0.370128D-42    0.113461-119    0.421447D+00
   0   318    0.229885-123    0.199081D-42    0.688578-121    0.421447D+00
   0   319    0.536094-124    0.106899D-42    0.580505-121    0.421447D+00
   0   320    0.125223-124    0.573042D-43    0.166912-121    0.421447D+00
   0   321    0.295985-125    0.306667D-43    0.335518-122    0.421447D+00
   0   322    0.716727-126    0.163839D-43    0.364464-123    0.421447D+00
   0   323    0.167358-126    0.873845D-44    0.679556-124    0.421447D+00
   0   324    0.390939-127    0.465287D-44    0.479870-124    0.421447D+00
   0   325    0.928631-128    0.247330D-44    0.419364-125    0.421447D+00
   0   326    0.215414-128    0.131251D-44    0.135515-125    0.421447D+00
   0   327    0.501234-129    0.695343D-45    0.608040-126    0.421447D+00
   0   328    0.118305-129    0.367760D-45    0.106047-126    0.421447D+00
   0   329    0.272876-130    0.194179D-45    0.412420-127    0.421447D+00
   0   330    0.634611-131    0.102355D-45    0.254207-128    0.421447D+00
   0   331    0.148297-131    0.538626D-46    0.447902-129    0.421447D+00
   0   332    0.359929-132    0.282968D-46    0.432809-129    0.421447D+00
   0   333    0.853741-133    0.148409D-46    0.101518-129    0.421447D+00
   0   334    0.195281-133    0.777059D-47    0.269689-130    0.421447D+00
   0   335    0.452169-134    0.406183D-47    0.374724-131    0.421447D+00
   0   336    0.107069-134    0.211964D-47    0.380304-132    0.421447D+00
   0   337    0.240613-135    0.110427D-47    0.143017-132    0.421447D+00
   0   338    0.563256-136    0.574332D-48    0.366815-133    0.421447D+00
   0   339    0.132950-136    0.298212D-48    0.181683-133    0.421447D+00
   0   340    0.299119-137    0.154583D-48    0.122011-134    0.421447D+00
   0   341    0.686268-138    0.799968D-49    0.729161-135    0.421447D+00
   0   342    0.159344-138    0.413294D-49    0.178652-135    0.421447D+00
   0   343    0.369860-139    0.213168D-49    0.183813-136    0.421447D+00
   0   344    0.870701-140    0.109764D-49    0.120721-136    0.421447D+00
   0   345    0.197695-140    0.564258D-50    0.102879-137    0.421447D+00
   0   346    0.456958-141    0.289582D-50    0.393801-138    0.421447D+00
   0   347    0.102046-141    0.148369D-50    0.590770-139    0.421447D+00
   0   348    0.238218-142    0.758912D-51    0.912138-140    0.421447D+00
   0   349    0.541049-143    0.387542D-51    0.413855-140    0.421447D+00
   0   350    0.121274-143    0.197572D-51    0.486749-141    0.421447D+00
   0   351    0.288888-144    0.100557D-51    0.229247-141    0.421447D+00
   0   352    0.671950-145    0.510950D-52    0.890655-142    0.421447D+00
   0   353    0.147222-145    0.259194D-52    0.201577-142    0.421447D+00
   0   354    0.328138-146    0.131266D-52    0.205688-143    0.421447D+00
   0   355    0.765852-147    0.663685D-53    0.976847-144    0.421447D+00
   0   356    0.171404-147    0.335006D-53    0.251730-144    0.421447D+00
   0   357    0.381194-148    0.168821D-53    0.525607-145    0.421447D+00
   0   358    0.880466-149    0.849342D-54    0.331041-146    0.421447D+00
   0   359    0.196563-149    0.426601D-54    0.107229-146    0.421447D+00
   0   360    0.444019-150    0.213917D-54    0.258590-147    0.421447D+00
   0   361    0.982117-151    0.107091D-54    0.740277-148    0.421447D+00
   0   362    0.217106-151    0.535237D-55    0.115262-148    0.421447D+00
   0   363    0.484570-152    0.267069D-55    0.742879-149    0.421447D+00
   0   364    0.112219-152    0.133042D-55    0.838411-150    0.421447D+00
   0   365    0.252642-153    0.661665D-56    0.348819-150    0.421447D+00
   0   366    0.562262-154    0.328530D-56    0.697244-151    0.421447D+00
   0   367    0.125766-154    0.162854D-56    0.623937-152    0.421447D+00
   0   368    0.278611-155    0.805957D-57    0.281921-152    0.421447D+00
   0   369    0.613110-156    0.398211D-57    0.622020-153    0.421447D+00
   0   370    0.131839-156    0.196428D-57    0.986454-154    0.421447D+00
   0   371    0.295894-157    0.967347D-58    0.287244-154    0.421447D+00
   0   372    0.639633-158    0.475611D-58    0.707518-155    0.421447D+00
   0   373    0.141244-158    0.233460D-58    0.166968-155    0.421447D+00
   0   374    0.311162-159    0.114410D-58    0.273110-156    0.421447D+00
   0   375    0.683219-160    0.559764D-59    0.414477-157    0.421447D+00
   0   376    0.149418-160    0.273426D-59    0.834823-158    0.421447D+00
   0   377    0.328975-161    0.133342D-59    0.412995-158    0.421447D+00
   0   378    0.705548-162    0.649215D-60    0.637617-159    0.421447D+00
   0   379    0.157548-162    0.315575D-60    0.163102-159    0.421447D+00
   0   380    0.336729-163    0.153148D-60    0.425227-160    0.421447D+00
   0   381    0.708369-164    0.742020D-61    0.107722-160    0.421447D+00
   0   382    0.150217-164    0.358934D-61    0.137372-161    0.421447D+00
   0   383    0.321588-165    0.173344D-61    0.183749-162    0.421447D+00
   0   384    0.698687-166    0.835797D-62    0.417644-163    0.421447D+00
   0   385    0.152991-166    0.402337D-62    0.114179-163    0.421447D+00
   0   386    0.328413-167    0.193364D-62    0.479072-164    0.421447D+00
   0   387    0.690752-168    0.927812D-63    0.848199-165    0.421447D+00
   0   388    0.147956-168    0.444471D-63    0.140383-165    0.421447D+00
   0   389    0.321154-169    0.212581D-63    0.495535-166    0.421447D+00
   0   390    0.676640-170    0.101510D-63    0.114130-166    0.421447D+00
   0   391    0.146543-170    0.483938D-64    0.175480-167    0.421447D+00
   0   392    0.300135-171    0.230341D-64    0.295083-168    0.421447D+00
   0   393    0.649573-172    0.109458D-64    0.105803-168    0.421447D+00
   0   394    0.137220-172    0.519273D-65    0.115327-169    0.421447D+00
   0   395    0.288699-173    0.245872D-65    0.249553-170    0.421447D+00
   0   396    0.595446-174    0.116065D-65    0.695399-171    0.421447D+00
   0   397    0.126881-174    0.543432D-66    0.941191-172    0.421447D+00