variables =  "IG"  "JG"  "PHI"  "Temp."  "Latent_heat"  "mm"
ZONE  I=  401  J=  101
   0     0    0.100000D+01    0.717080D+00    0.000000D+00    0.352673D+00
   0     1    0.100000D+01    0.717080D+00    0.000000D+00    0.352673D+00
   0     2    0.100000D+01    0.718484D+00    0.000000D+00    0.352224D+00
   0     3    0.100000D+01    0.721276D+00    0.000000D+00    0.351320D+00
   0     4    0.100000D+01    0.725428D+00    0.000000D+00    0.349946D+00
   0     5    0.100000D+01    0.730895D+00    0.000000D+00    0.348079D+00
   0     6    0.100000D+01    0.737620D+00    0.000000D+00    0.345689D+00
   0     7    0.100000D+01    0.745535D+00    0.000000D+00    0.342735D+00
   0     8    0.100000D+01    0.754561D+00    0.000000D+00    0.339166D+00
   0     9    0.100000D+01    0.764610D+00    0.000000D+00    0.334919D+00
   0    10    0.100000D+01    0.775588D+00    0.000000D+00    0.329913D+00
   0    11    0.100000D+01    0.787397D+00   -0.133227D-10    0.324052D+00
   0    12    0.100000D+01    0.799935D+00    0.133227D-10    0.317215D+00
   0    13    0.100000D+01    0.813101D+00   -0.279776D-09    0.309258D+00
   0    14    0.100000D+01    0.826796D+00    0.526246D-08    0.300001D+00
   0    15    0.100000D+01    0.840926D+00    0.732481D-07    0.289227D+00
   0    16    0.100000D+01    0.855403D+00    0.323874D-07    0.276666D+00
   0    17    0.100000D+01    0.870155D+00   -0.320370D-06    0.261992D+00
   0    18    0.100000D+01    0.885125D+00   -0.108770D-04    0.244799D+00
   0    19    0.999999D+00    0.900287D+00    0.372836D-05    0.224585D+00
   0    20    0.999994D+00    0.915662D+00    0.300861D-02    0.200714D+00
   0    21    0.999951D+00    0.931340D+00   -0.177318D-01    0.172362D+00
   0    22    0.999632D+00    0.947534D+00    0.177857D+00    0.138410D+00
   0    23    0.997350D+00    0.964689D+00    0.412898D-02    0.972673D-01
   0    24    0.981946D+00    0.983435D+00   -0.651593D+01    0.468776D-01
   0    25    0.886176D+00    0.100539D+01   -0.315190D+02   -0.159538D-01
   0    26    0.453884D+00    0.102679D+01    0.445059D+02   -0.776923D-01
   0    27    0.105458D+00    0.102725D+01    0.320044D+02   -0.781541D-01
   0    28    0.288106D-01    0.102221D+01    0.100630D+02   -0.619062D-01
   0    29    0.116092D-01    0.101915D+01    0.800000D+01   -0.540033D-01
   0    30    0.853490D-02    0.101519D+01   -0.356681D+01   -0.433057D-01
   0    31    0.792836D-02    0.101233D+01    0.260074D+01   -0.350924D-01
   0    32    0.842728D-02    0.101057D+01    0.160460D+01   -0.300363D-01
   0    33    0.884310D-02    0.100855D+01    0.212350D+01   -0.244030D-01
   0    34    0.935596D-02    0.100823D+01    0.802790D-01   -0.235269D-01
   0    35    0.100695D-01    0.100706D+01   -0.527992D+01   -0.204511D-01
   0    36    0.103283D-01    0.100624D+01    0.614864D+01   -0.182763D-01
   0    37    0.108087D-01    0.100593D+01   -0.502443D+01   -0.172922D-01
   0    38    0.113658D-01    0.100483D+01   -0.382111D+01   -0.136061D-01
   0    39    0.114746D-01    0.100404D+01   -0.351436D+01   -0.113039D-01
   0    40    0.122704D-01    0.100260D+01   -0.294191D+01   -0.737910D-02
   0    41    0.124677D-01    0.100266D+01    0.615058D+00   -0.752230D-02
   0    42    0.126884D-01    0.100179D+01    0.416863D+01   -0.509152D-02
   0    43    0.130561D-01    0.100024D+01    0.693606D+01   -0.285154D-03
   0    44    0.135166D-01    0.999616D+00    0.660226D+01    0.158189D-02
   0    45    0.136076D-01    0.999100D+00   -0.388273D+01    0.260934D-02
   0    46    0.133199D-01    0.998723D+00    0.704367D+01    0.335703D-02
   0    47    0.134935D-01    0.998860D+00   -0.600419D+01    0.382446D-02
   0    48    0.133473D-01    0.998897D+00    0.596601D+01    0.354353D-02
   0    49    0.136577D-01    0.998056D+00    0.673104D+01    0.628640D-02
   0    50    0.143542D-01    0.997458D+00    0.516098D+01    0.747729D-02
   0    51    0.141304D-01    0.996119D+00    0.481021D+01    0.117577D-01
   0    52    0.154476D-01    0.993298D+00   -0.959326D+01    0.191251D-01
   0    53    0.161712D-01    0.991250D+00   -0.174411D+01    0.254571D-01
   0    54    0.176367D-01    0.987239D+00    0.379217D+01    0.362176D-01
   0    55    0.192840D-01    0.980641D+00    0.836271D+01    0.557368D-01
   0    56    0.219447D-01    0.971548D+00    0.876805D+01    0.800780D-01
   0    57    0.256868D-01    0.953512D+00   -0.295352D+01    0.124412D+00
   0    58    0.284486D-01    0.926940D+00   -0.313396D+01    0.180953D+00
   0    59    0.270647D-01    0.884486D+00    0.752904D+01    0.245559D+00
   0    60    0.218089D-01    0.821058D+00    0.144402D+02    0.304330D+00
   0    61    0.136039D-01    0.734414D+00    0.110823D+02    0.347042D+00
   0    62    0.680504D-02    0.630307D+00    0.370860D+01    0.374418D+00
   0    63    0.304902D-02    0.520558D+00    0.297712D+01    0.391158D+00
   0    64    0.125433D-02    0.415450D+00    0.978198D+00    0.401503D+00
   0    65    0.474751D-03    0.322018D+00    0.252455D+00    0.408074D+00
   0    66    0.163702D-03    0.243345D+00    0.533356D-01    0.412375D+00
   0    67    0.562475D-04    0.179859D+00    0.556265D-01    0.415253D+00
   0    68    0.188681D-04    0.130382D+00    0.231453D-01    0.417209D+00
   0    69    0.600108D-05    0.929220D-01    0.590974D-02    0.418550D+00
   0    70    0.183092D-05    0.652403D-01    0.124096D-02    0.419473D+00
   0    71    0.574987D-06    0.452061D-01    0.242653D-03    0.420107D+00
   0    72    0.170135D-06    0.309646D-01    0.313831D-04    0.420543D+00
   0    73    0.485935D-07    0.209964D-01    0.187197D-04    0.420840D+00
   0    74    0.146271D-07    0.141120D-01    0.713038D-05    0.421042D+00
   0    75    0.428564D-08    0.941226D-02    0.894550D-06    0.421178D+00
   0    76    0.127697D-08    0.623574D-02    0.659995D-06    0.421269D+00
   0    77    0.358123D-09    0.410726D-02    0.381959D-06    0.421330D+00
   0    78    0.112272D-09    0.269165D-02    0.925521D-07    0.421371D+00
   0    79    0.346359D-10    0.175621D-02    0.333653D-07    0.421397D+00
   0    80    0.103139D-10    0.114151D-02    0.114751D-07    0.421415D+00
   0    81    0.310947D-11    0.739525D-03    0.330122D-08    0.421426D+00
   0    82    0.931861D-12    0.477734D-03    0.487803D-09    0.421433D+00
   0    83    0.275731D-12    0.307856D-03    0.282088D-09    0.421438D+00
   0    84    0.786297D-13    0.197962D-03    0.370855D-10    0.421441D+00
   0    85    0.223890D-13    0.127063D-03    0.121159D-10    0.421443D+00
   0    86    0.644509D-14    0.814251D-04    0.519937D-11    0.421445D+00
   0    87    0.174811D-14    0.521070D-04    0.217581D-11    0.421446D+00
   0    88    0.494684D-15    0.333046D-04    0.609249D-12    0.421446D+00
   0    89    0.135534D-15    0.212641D-04    0.174571D-12    0.421446D+00
   0    90    0.369219D-16    0.135634D-04    0.969817D-14    0.421447D+00
   0    91    0.998833D-17    0.864393D-05    0.911493D-14    0.421447D+00
   0    92    0.263675D-17    0.550425D-05    0.100638D-14    0.421447D+00
   0    93    0.678699D-18    0.350224D-05    0.916147D-15    0.421447D+00
   0    94    0.174865D-18    0.222672D-05    0.116232D-15    0.421447D+00
   0    95    0.465881D-19    0.141466D-05    0.410650D-16    0.421447D+00
   0    96    0.114539D-19    0.898055D-06    0.175654D-16    0.421447D+00
   0    97    0.298084D-20    0.569643D-06    0.374189D-17    0.421447D+00
   0    98    0.776065D-21    0.361021D-06    0.717621D-18    0.421447D+00
   0    99    0.199553D-21    0.228596D-06    0.249850D-18    0.421447D+00
   0   100    0.499801D-22    0.144605D-06    0.715690D-19    0.421447D+00
   0   101    0.125037D-22    0.913786D-07    0.157136D-19    0.421447D+00
   0   102    0.310710D-23    0.576792D-07    0.266200D-20    0.421447D+00
   0   103    0.795390D-24    0.363639D-07    0.544633D-21    0.421447D+00
   0   104    0.191353D-24    0.228961D-07    0.165379D-21    0.421447D+00
   0   105    0.493490D-25    0.143963D-07    0.904443D-23    0.421447D+00
   0   106    0.122831D-25    0.903862D-08    0.139921D-22    0.421447D+00
   0   107    0.304531D-26    0.566596D-08    0.111751D-23    0.421447D+00
   0   108    0.748990D-27    0.354590D-08    0.807364D-24    0.421447D+00
   0   109    0.187146D-27    0.221524D-08    0.461103D-25    0.421447D+00
   0   110    0.459608D-28    0.138139D-08    0.242003D-25    0.421447D+00
   0   111    0.110742D-28    0.859766D-09    0.133430D-25    0.421447D+00
   0   112    0.261248D-29    0.534039D-09    0.326866D-26    0.421447D+00
   0   113    0.656739D-30    0.331023D-09    0.840006D-27    0.421447D+00
   0   114    0.158589D-30    0.204741D-09    0.853497D-28    0.421447D+00
   0   115    0.392871D-31    0.126351D-09    0.109384D-28    0.421447D+00
   0   116    0.973430D-32    0.777947D-10    0.904069D-29    0.421447D+00
   0   117    0.233317D-32    0.477846D-10    0.106500D-29    0.421447D+00
   0   118    0.568045D-33    0.292797D-10    0.773781D-30    0.421447D+00
   0   119    0.136994D-33    0.178960D-10    0.149713D-30    0.421447D+00
   0   120    0.328013D-34    0.109103D-10    0.273407D-31    0.421447D+00
   0   121    0.794875D-35    0.663407D-11    0.947042D-32    0.421447D+00
   0   122    0.192351D-35    0.402316D-11    0.261960D-32    0.421447D+00
   0   123    0.465587D-36    0.243319D-11    0.630299D-33    0.421447D+00
   0   124    0.114022D-36    0.146754D-11    0.599635D-34    0.421447D+00
   0   125    0.274995D-37    0.882645D-12    0.307068D-34    0.421447D+00
   0   126    0.676382D-38    0.529361D-12    0.686133D-35    0.421447D+00
   0   127    0.159474D-38    0.316570D-12    0.134276D-35    0.421447D+00
   0   128    0.380620D-39    0.188767D-12    0.269362D-36    0.421447D+00
   0   129    0.910434D-40    0.112229D-12    0.971306D-37    0.421447D+00
   0   130    0.216172D-40    0.665271D-13    0.197020D-37    0.421447D+00
   0   131    0.532867D-41    0.393180D-13    0.107800D-38    0.421447D+00
   0   132    0.125185D-41    0.231672D-13    0.423547D-39    0.421447D+00
   0   133    0.299674D-42    0.136093D-13    0.211204D-39    0.421447D+00
   0   134    0.711248D-43    0.797017D-14    0.499375D-40    0.421447D+00
   0   135    0.172442D-43    0.465330D-14    0.233842D-40    0.421447D+00
   0   136    0.410128D-44    0.270838D-14    0.428644D-41    0.421447D+00
   0   137    0.994558D-45    0.157146D-14    0.650043D-42    0.421447D+00
   0   138    0.240424D-45    0.908948D-15    0.340410D-42    0.421447D+00
   0   139    0.574865D-46    0.524093D-15    0.582401D-43    0.421447D+00
   0   140    0.133936D-46    0.301235D-15    0.758901D-44    0.421447D+00
   0   141    0.320653D-47    0.172595D-15    0.353649D-44    0.421447D+00
   0   142    0.776906D-48    0.985753D-16    0.550924D-45    0.421447D+00
   0   143    0.187199D-48    0.561207D-16    0.255398D-45    0.421447D+00
   0   144    0.462654D-49    0.318486D-16    0.252645D-46    0.421447D+00
   0   145    0.109005D-49    0.180162D-16    0.128717D-46    0.421447D+00
   0   146    0.256063D-50    0.101588D-16    0.151334D-47    0.421447D+00
   0   147    0.602023D-51    0.570982D-17    0.559139D-48    0.421447D+00
   0   148    0.144983D-51    0.319891D-17    0.194187D-48    0.421447D+00
   0   149    0.352472D-52    0.178640D-17    0.311623D-49    0.421447D+00
   0   150    0.827944D-53    0.994373D-18    0.807449D-50    0.421447D+00
   0   151    0.205069D-53    0.551714D-18    0.196650D-50    0.421447D+00
   0   152    0.465121D-54    0.305120D-18    0.494892D-51    0.421447D+00
   0   153    0.108194D-54    0.168197D-18    0.491134D-52    0.421447D+00
   0   154    0.257908D-55    0.924177D-19    0.165473D-52    0.421447D+00
   0   155    0.597637D-56    0.506152D-19    0.397899D-53    0.421447D+00
   0   156    0.137737D-56    0.276309D-19    0.136932D-53    0.421447D+00
   0   157    0.328534D-57    0.150347D-19    0.469604D-54    0.421447D+00
   0   158    0.784844D-58    0.815425D-20    0.822174D-55    0.421447D+00
   0   159    0.180426D-58    0.440818D-20    0.225339D-55    0.421447D+00
   0   160    0.433502D-59    0.237531D-20    0.239714D-56    0.421447D+00
   0   161    0.995726D-60    0.127576D-20    0.134451D-56    0.421447D+00
   0   162    0.233483D-60    0.682974D-21    0.125744D-57    0.421447D+00
   0   163    0.551241D-61    0.364440D-21    0.550868D-58    0.421447D+00
   0   164    0.130396D-61    0.193836D-21    0.975162D-59    0.421447D+00
   0   165    0.299120D-62    0.102762D-21    0.268939D-59    0.421447D+00
   0   166    0.686457D-63    0.543023D-22    0.350954D-60    0.421447D+00
   0   167    0.160578D-63    0.286017D-22    0.208307D-60    0.421447D+00
   0   168    0.371501D-64    0.150161D-22    0.198304D-61    0.421447D+00
   0   169    0.853680D-65    0.785798D-23    0.447140D-62    0.421447D+00
   0   170    0.193990D-65    0.409880D-23    0.266298D-62    0.421447D+00
   0   171    0.450224D-66    0.213105D-23    0.204335D-63    0.421447D+00
   0   172    0.105905D-66    0.110439D-23    0.624739D-64    0.421447D+00
   0   173    0.241904D-67    0.570491D-24    0.128502D-64    0.421447D+00
   0   174    0.544693D-68    0.293744D-24    0.384365D-65    0.421447D+00
   0   175    0.119980D-68    0.150760D-24    0.126854D-65    0.421447D+00
   0   176    0.268415D-69    0.771255D-25    0.158403D-66    0.421447D+00
   0   177    0.616236D-70    0.393287D-25    0.719724D-67    0.421447D+00
   0   178    0.133311D-70    0.199904D-25    0.143605D-67    0.421447D+00
   0   179    0.299059D-71    0.101283D-25    0.224093D-68    0.421447D+00
   0   180    0.682300D-72    0.511506D-26    0.101844D-68    0.421447D+00
   0   181    0.152763D-72    0.257496D-26    0.720185D-70    0.421447D+00
   0   182    0.358141D-73    0.129210D-26    0.439996D-70    0.421447D+00
   0   183    0.804890D-74    0.646291D-27    0.438124D-71    0.421447D+00
   0   184    0.174925D-74    0.322232D-27    0.263421D-71    0.421447D+00
   0   185    0.388077D-75    0.160147D-27    0.531894D-72    0.421447D+00
   0   186    0.846556D-76    0.793377D-28    0.909541D-73    0.421447D+00
   0   187    0.183294D-76    0.391791D-28    0.844145D-74    0.421447D+00
   0   188    0.389738D-77    0.192861D-28    0.639956D-74    0.421447D+00
   0   189    0.844613D-78    0.946344D-29    0.103765D-74    0.421447D+00
   0   190    0.178687D-78    0.462884D-29    0.262416D-75    0.421447D+00
   0   191    0.394863D-79    0.225691D-29    0.205856D-76    0.421447D+00
   0   192    0.832462D-80    0.109693D-29    0.912663D-77    0.421447D+00
   0   193    0.182824D-80    0.531455D-30    0.179808D-77    0.421447D+00
   0   194    0.382527D-81    0.256672D-30    0.343850D-78    0.421447D+00
   0   195    0.826157D-82    0.123571D-30    0.923873D-79    0.421447D+00
   0   196    0.181570D-82    0.593039D-31    0.269672D-79    0.421447D+00
   0   197    0.382884D-83    0.283713D-31    0.557345D-80    0.421447D+00
   0   198    0.806146D-84    0.135303D-31    0.709024D-81    0.421447D+00
   0   199    0.167209D-84    0.643235D-32    0.258087D-81    0.421447D+00
   0   200    0.348228D-85    0.304837D-32    0.592970D-82    0.421447D+00
   0   201    0.734594D-86    0.144013D-32    0.119359D-82    0.421447D+00
   0   202    0.152645D-86    0.678230D-33    0.201428D-83    0.421447D+00
   0   203    0.316309D-87    0.318414D-33    0.336129D-84    0.421447D+00
   0   204    0.640927D-88    0.149022D-33    0.524311D-85    0.421447D+00
   0   205    0.131953D-88    0.695270D-34    0.208603D-85    0.421447D+00
   0   206    0.269638D-89    0.323373D-34    0.454345D-86    0.421447D+00
   0   207    0.557317D-90    0.149935D-34    0.920376D-87    0.421447D+00
   0   208    0.115537D-90    0.693030D-35    0.930012D-88    0.421447D+00
   0   209    0.239907D-91    0.319341D-35    0.252283D-88    0.421447D+00
   0   210    0.470345D-92    0.146694D-35    0.572529D-89    0.421447D+00
   0   211    0.940867D-93    0.671776D-36    0.167880D-89    0.421447D+00
   0   212    0.190095D-93    0.306687D-36    0.330492D-90    0.421447D+00
   0   213    0.369640D-94    0.139582D-36    0.417021D-91    0.421447D+00
   0   214    0.733313D-95    0.633320D-37    0.864847D-92    0.421447D+00
   0   215    0.146359D-95    0.286472D-37    0.263136D-92    0.421447D+00
   0   216    0.287859D-96    0.129184D-37    0.292294D-93    0.421447D+00
   0   217    0.576514D-97    0.580767D-38    0.946312D-94    0.421447D+00
   0   218    0.112851D-97    0.260296D-38    0.190330D-94    0.421447D+00
   0   219    0.217473D-98    0.116307D-38    0.227491D-95    0.421447D+00
   0   220    0.421719D-99    0.518103D-39    0.629657D-96    0.421447D+00
   0   221    0.800886-100    0.230094D-39    0.121901D-96    0.421447D+00
   0   222    0.156169-100    0.101876D-39    0.235636D-97    0.421447D+00
   0   223    0.307259-101    0.449696D-40    0.287424D-98    0.421447D+00
   0   224    0.584253-102    0.197902D-40    0.992808D-99    0.421447D+00
   0   225    0.110396-102    0.868291D-41    0.128404D-99    0.421447D+00
   0   226    0.207631-103    0.379811D-41    0.198248-100    0.421447D+00
   0   227    0.399132-104    0.165637D-41    0.763300-101    0.421447D+00
   0   228    0.761372-105    0.720179D-42    0.609454-102    0.421447D+00
   0   229    0.143681-105    0.312187D-42    0.168690-102    0.421447D+00
   0   230    0.273513-106    0.134923D-42    0.451219-103    0.421447D+00
   0   231    0.503521-107    0.581370D-43    0.645914-104    0.421447D+00
   0   232    0.944739-108    0.249758D-43    0.180603-104    0.421447D+00
   0   233    0.174485-108    0.106976D-43    0.236009-105    0.421447D+00
   0   234    0.322054-109    0.456834D-44    0.406917-106    0.421447D+00
   0   235    0.588373-110    0.194507D-44    0.847118-107    0.421447D+00
   0   236    0.110962-110    0.825696D-45    0.135196-107    0.421447D+00
   0   237    0.202132-111    0.349473D-45    0.377196-108    0.421447D+00
   0   238    0.362208-112    0.147476D-45    0.540561-109    0.421447D+00
   0   239    0.654348-113    0.620497D-46    0.747008-110    0.421447D+00
   0   240    0.119510-113    0.260301D-46    0.203631-110    0.421447D+00
   0   241    0.214787-114    0.108875D-46    0.245174-111    0.421447D+00
   0   242    0.379182-115    0.454050D-47    0.447487-112    0.421447D+00
   0   243    0.670209-116    0.188799D-47    0.123801-112    0.421447D+00
   0   244    0.122072-116    0.782745D-48    0.114943-113    0.421447D+00
   0   245    0.221280-117    0.323569D-48    0.421808-114    0.421447D+00
   0   246    0.385713-118    0.133365D-48    0.813448-115    0.421447D+00
   0   247    0.683268-119    0.548087D-49    0.116345-115    0.421447D+00
   0   248    0.117157-119    0.224589D-49    0.242233-116    0.421447D+00
   0   249    0.203708-120    0.917619D-50    0.283900-117    0.421447D+00
   0   250    0.361371-121    0.373830D-50    0.723451-118    0.421447D+00
   0   251    0.627362-122    0.151853D-50    0.795287-119    0.421447D+00
   0   252    0.107969-122    0.615057D-51    0.228809-119    0.421447D+00
   0   253    0.187111-123    0.248399D-51    0.271102-120    0.421447D+00
   0   254    0.310471-124    0.100030D-51    0.562163-121    0.421447D+00
   0   255    0.536576-125    0.401659D-52    0.652164-122    0.421447D+00
   0   256    0.882522-126    0.160818D-52    0.202712-122    0.421447D+00
   0   257    0.152812-126    0.642042D-53    0.207224-123    0.421447D+00
   0   258    0.258546-127    0.255591D-53    0.276113-124    0.421447D+00
   0   259    0.424553-128    0.101458D-53    0.802068-125    0.421447D+00
   0   260    0.712142-129    0.401589D-54    0.843432-126    0.421447D+00
   0   261    0.119113-129    0.158503D-54    0.224885-126    0.421447D+00
   0   262    0.203649-130    0.623817D-55    0.270099-127    0.421447D+00
   0   263    0.332260-131    0.244817D-55    0.718428-128    0.421447D+00
   0   264    0.551926-132    0.958056D-56    0.978369-129    0.421447D+00
   0   265    0.928077-133    0.373860D-56    0.131703-129    0.421447D+00
   0   266    0.150481-133    0.145478D-56    0.307979-130    0.421447D+00
   0   267    0.246261-134    0.564495D-57    0.322747-131    0.421447D+00
   0   268    0.401726-135    0.218422D-57    0.867975-132    0.421447D+00
   0   269    0.647028-136    0.842772D-58    0.842177-133    0.421447D+00
   0   270    0.103110-136    0.324267D-58    0.130421-133    0.421447D+00
   0   271    0.169611-137    0.124416D-58    0.225972-134    0.421447D+00
   0   272    0.278070-138    0.476028D-59    0.619634-135    0.421447D+00
   0   273    0.444499-139    0.181625D-59    0.788078-136    0.421447D+00
   0   274    0.699119-140    0.691041D-60    0.122771-136    0.421447D+00
   0   275    0.112224-140    0.262194D-60    0.208682-137    0.421447D+00
   0   276    0.174380-141    0.992049D-61    0.254155-138    0.421447D+00
   0   277    0.280213-142    0.374315D-61    0.595120-139    0.421447D+00
   0   278    0.431165-143    0.140843D-61    0.658149-140    0.421447D+00
   0   279    0.672690-144    0.528487D-62    0.118561-140    0.421447D+00
   0   280    0.107130-144    0.197757D-62    0.170719-141    0.421447D+00
   0   281    0.162705-145    0.737955D-63    0.363428-142    0.421447D+00
   0   282    0.249345-146    0.274621D-63    0.379643-143    0.421447D+00
   0   283    0.388898-147    0.101916D-63    0.630195-144    0.421447D+00
   0   284    0.607802-148    0.377189D-64    0.866414-145    0.421447D+00
   0   285    0.938408-149    0.139215D-64    0.186139-145    0.421447D+00
   0   286    0.144372-149    0.512420D-65    0.334001-146    0.421447D+00
   0   287    0.215496-150    0.188096D-65    0.516566-147    0.421447D+00
   0   288    0.332110-151    0.688572D-66    0.639947-148    0.421447D+00
   0   289    0.495825-152    0.251384D-66    0.835614-149    0.421447D+00
   0   290    0.727564-153    0.915265D-67    0.114985-149    0.421447D+00
   0   291    0.108683-153    0.332337D-67    0.241628-150    0.421447D+00
   0   292    0.161315-154    0.120347D-67    0.274402-151    0.421447D+00
   0   293    0.241921-155    0.434627D-68    0.481948-152    0.421447D+00
   0   294    0.358622-156    0.156541D-68    0.651411-153    0.421447D+00
   0   295    0.513962-157    0.562301D-69    0.937701-154    0.421447D+00
   0   296    0.760527-158    0.201439D-69    0.116085-154    0.421447D+00
   0   297    0.111323-158    0.719701D-70    0.173663-155    0.421447D+00
   0   298    0.162698-159    0.256447D-70    0.263010-156    0.421447D+00
   0   299    0.240880-160    0.911343D-71    0.567994-157    0.421447D+00
   0   300    0.350171-161    0.323003D-71    0.639941-158    0.421447D+00
   0   301    0.528908-162    0.114176D-71    0.839524-159    0.421447D+00
   0   302    0.775282-163    0.402520D-72    0.174373-159    0.421447D+00
   0   303    0.110167-163    0.141530D-72    0.234340-160    0.421447D+00
   0   304    0.161152-164    0.496313D-73    0.285350-161    0.421447D+00
   0   305    0.228220-165    0.173586D-73    0.585086-162    0.421447D+00
   0   306    0.328152-166    0.605518D-74    0.543168-163    0.421447D+00
   0   307    0.458436-167    0.210666D-74    0.882581-164    0.421447D+00
   0   308    0.649102-168    0.731000D-75    0.110755-164    0.421447D+00
   0   309    0.938500-169    0.252988D-75    0.149180-165    0.421447D+00
   0   310    0.133522-169    0.873259D-76    0.237127-166    0.421447D+00
   0   311    0.184940-170    0.300642D-76    0.403049-167    0.421447D+00
   0   312    0.257623-171    0.103233D-76    0.707522-168    0.421447D+00
   0   313    0.368813-172    0.353556D-77    0.639474-169    0.421447D+00
   0   314    0.506575-173    0.120771D-77    0.119015-169    0.421447D+00
   0   315    0.702566-174    0.411473D-78    0.134636-170    0.421447D+00
   0   316    0.976429-175    0.139827D-78    0.255420-171    0.421447D+00
   0   317    0.136157-175    0.473931D-79    0.314116-172    0.421447D+00
   0   318    0.187020-176    0.160220D-79    0.514905-173    0.421447D+00
   0   319    0.253055-177    0.540251D-80    0.647308-174    0.421447D+00
   0   320    0.347937-178    0.181700D-80    0.887921-175    0.421447D+00
   0   321    0.479580-179    0.609534D-81    0.106481-175    0.421447D+00
   0   322    0.652908-180    0.203951D-81    0.188136-176    0.421447D+00
   0   323    0.885338-181    0.680673D-82    0.230683-177    0.421447D+00
   0   324    0.118367-181    0.226590D-82    0.350458-178    0.421447D+00
   0   325    0.158219-182    0.752371D-83    0.450899-179    0.421447D+00
   0   326    0.212921-183    0.249182D-83    0.522660-180    0.421447D+00
   0   327    0.288788-184    0.823178D-84    0.612212-181    0.421447D+00
   0   328    0.388782-185    0.271249D-84    0.730964-182    0.421447D+00
   0   329    0.508542-186    0.891539D-85    0.121381-182    0.421447D+00
   0   330    0.674046-187    0.292289D-85    0.143998-183    0.421447D+00
   0   331    0.889310-188    0.955842D-86    0.165369-184    0.421447D+00
   0   332    0.114556-188    0.311791D-86    0.234639-185    0.421447D+00
   0   333    0.153715-189    0.101449D-86    0.317417-186    0.421447D+00
   0   334    0.199455-190    0.329259D-87    0.405786-187    0.421447D+00
   0   335    0.258074-191    0.106595D-87    0.553783-188    0.421447D+00
   0   336    0.340022-192    0.344230D-88    0.894262-189    0.421447D+00
   0   337    0.440612-193    0.110885D-88    0.123820-189    0.421447D+00
   0   338    0.566596-194    0.356298D-89    0.143959-190    0.421447D+00
   0   339    0.734862-195    0.114201D-89    0.157497-191    0.421447D+00
   0   340    0.944922-196    0.365128D-90    0.243943-192    0.421447D+00
   0   341    0.118823-196    0.116451D-90    0.240487-193    0.421447D+00
   0   342    0.147143-197    0.370476D-91    0.419863-194    0.421447D+00
   0   343    0.196630-198    0.117572D-91    0.352097-195    0.421447D+00
   0   344    0.244202-199    0.372198D-92    0.538296-196    0.421447D+00
   0   345    0.313348-200    0.117536D-92    0.734537-197    0.421447D+00
   0   346    0.391533-201    0.370254D-93    0.915472-198    0.421447D+00
   0   347    0.488917-202    0.116348D-93    0.143303-198    0.421447D+00
   0   348    0.609839-203    0.364715D-94    0.187641-199    0.421447D+00
   0   349    0.764006-204    0.114047D-94    0.197127-200    0.421447D+00
   0   350    0.957363-205    0.355753D-95    0.250078-201    0.421447D+00
   0   351    0.117593-205    0.110702D-95    0.378149-202    0.421447D+00
   0   352    0.148910-206    0.343639D-96    0.356245-203    0.421447D+00
   0   353    0.181093-207    0.106413D-96    0.468452-204    0.421447D+00
   0   354    0.224623-208    0.328721D-97    0.520084-205    0.421447D+00
   0   355    0.272665-209    0.101300D-97    0.918255-206    0.421447D+00
   0   356    0.331155-210    0.311415D-98    0.946920-207    0.421447D+00
   0   357    0.415639-211    0.955036D-99    0.957343-208    0.421447D+00
   0   358    0.509958-212    0.292181D-99    0.126238-208    0.421447D+00
   0   359    0.626188-213    0.891740-100    0.172770-209    0.421447D+00
   0   360    0.760773-214    0.271506-100    0.249808-210    0.421447D+00
   0   361    0.920449-215    0.824669-101    0.209323-211    0.421447D+00
   0   362    0.111787-215    0.249884-101    0.246632-212    0.421447D+00
   0   363    0.133716-216    0.755366-102    0.310369-213    0.421447D+00
   0   364    0.160487-217    0.227793-102    0.383683-214    0.421447D+00
   0   365    0.190483-218    0.685310-103    0.602233-215    0.421447D+00
   0   366    0.228536-219    0.205684-103    0.607870-216    0.421447D+00
   0   367    0.269801-220    0.615861-104    0.747991-217    0.421447D+00
   0   368    0.319818-221    0.183965-104    0.919589-218    0.421447D+00
   0   369    0.385013-222    0.548223-105    0.872492-219    0.421447D+00
   0   370    0.442471-223    0.162987-105    0.123704-219    0.421447D+00
   0   371    0.515596-224    0.483422-106    0.128597-220    0.421447D+00
   0   372    0.599805-225    0.143046-106    0.189584-221    0.421447D+00
   0   373    0.706500-226    0.422282-107    0.225477-222    0.421447D+00
   0   374    0.827576-227    0.124369-107    0.241038-223    0.421447D+00
   0   375    0.969902-228    0.365428-108    0.312728-224    0.421447D+00
   0   376    0.108930-228    0.107121-108    0.361183-225    0.421447D+00
   0   377    0.127965-229    0.313282-109    0.342774-226    0.421447D+00
   0   378    0.143274-230    0.914078-110    0.364525-227    0.421447D+00
   0   379    0.165852-231    0.266085-110    0.451898-228    0.421447D+00
   0   380    0.191974-232    0.772764-111    0.558456-229    0.421447D+00
   0   381    0.223208-233    0.223907-111    0.624222-230    0.421447D+00
   0   382    0.258495-234    0.647264-112    0.784802-231    0.421447D+00
   0   383    0.285233-235    0.186677-112    0.978745-232    0.421447D+00
   0   384    0.329650-236    0.537155-113    0.108102-232    0.421447D+00
   0   385    0.367039-237    0.154208-113    0.115475-233    0.421447D+00
   0   386    0.407340-238    0.441688-114    0.125503-234    0.421447D+00
   0   387    0.458213-239    0.126220-114    0.144917-235    0.421447D+00
   0   388    0.517522-240    0.359867-115    0.178539-236    0.421447D+00
   0   389    0.600146-241    0.102368-115    0.149564-237    0.421447D+00
   0   390    0.676173-242    0.290532-116    0.195482-238    0.421447D+00
   0   391    0.734239-243    0.822684-117    0.280598-239    0.421447D+00
   0   392    0.832388-244    0.232425-117    0.216545-240    0.421447D+00
   0   393    0.931819-245    0.655159-118    0.303827-241    0.421447D+00
   0   394    0.999699-246    0.184257-118    0.368374-242    0.421447D+00
   0   395    0.111142-246    0.517032-119    0.306037-243    0.421447D+00
   0   396    0.121445-247    0.144749-119    0.402797-244    0.421447D+00
   0   397    0.131316-248    0.404170-120    0.413247-245    0.421447D+00