variables =  "IG"  "JG"  "PHI"  "Temp."  "Latent_heat"  "mm"
ZONE  I=  401  J=  101
   0     0    0.100000D+01    0.928179D+00    0.000000D+00    0.178434D+00
   0     1    0.100000D+01    0.928179D+00    0.000000D+00    0.178434D+00
   0     2    0.100000D+01    0.928311D+00    0.000000D+00    0.178185D+00
   0     3    0.100000D+01    0.928573D+00    0.000000D+00    0.177687D+00
   0     4    0.100000D+01    0.928967D+00    0.000000D+00    0.176940D+00
   0     5    0.100000D+01    0.929490D+00    0.000000D+00    0.175941D+00
   0     6    0.100000D+01    0.930142D+00    0.000000D+00    0.174689D+00
   0     7    0.100000D+01    0.930922D+00    0.000000D+00    0.173183D+00
   0     8    0.100000D+01    0.931827D+00    0.000000D+00    0.171419D+00
   0     9    0.100000D+01    0.932857D+00    0.000000D+00    0.169395D+00
   0    10    0.100000D+01    0.934009D+00    0.000000D+00    0.167108D+00
   0    11    0.100000D+01    0.935281D+00    0.000000D+00    0.164555D+00
   0    12    0.100000D+01    0.936671D+00    0.000000D+00    0.161732D+00
   0    13    0.100000D+01    0.938175D+00    0.000000D+00    0.158634D+00
   0    14    0.100000D+01    0.939792D+00    0.000000D+00    0.155259D+00
   0    15    0.100000D+01    0.941518D+00    0.000000D+00    0.151602D+00
   0    16    0.100000D+01    0.943351D+00    0.000000D+00    0.147658D+00
   0    17    0.100000D+01    0.945287D+00    0.000000D+00    0.143424D+00
   0    18    0.100000D+01    0.947323D+00    0.000000D+00    0.138896D+00
   0    19    0.100000D+01    0.949457D+00    0.000000D+00    0.134068D+00
   0    20    0.100000D+01    0.951686D+00    0.000000D+00    0.128937D+00
   0    21    0.100000D+01    0.954007D+00    0.000000D+00    0.123497D+00
   0    22    0.100000D+01    0.956418D+00    0.000000D+00    0.117744D+00
   0    23    0.100000D+01    0.958918D+00    0.000000D+00    0.111671D+00
   0    24    0.100000D+01    0.961506D+00    0.000000D+00    0.105271D+00
   0    25    0.100000D+01    0.964182D+00   -0.266454D-10    0.985342D-01
   0    26    0.100000D+01    0.966949D+00    0.706102D-09    0.914486D-01
   0    27    0.100000D+01    0.969809D+00   -0.451639D-08    0.839980D-01
   0    28    0.100000D+01    0.972770D+00   -0.622169D-08    0.761614D-01
   0    29    0.100000D+01    0.975841D+00   -0.147815D-06    0.679110D-01
   0    30    0.100000D+01    0.979032D+00    0.203122D-05    0.592106D-01
   0    31    0.100000D+01    0.982363D+00    0.154596D-04    0.500133D-01
   0    32    0.100000D+01    0.985854D+00   -0.630604D-04    0.402582D-01
   0    33    0.999999D+00    0.989537D+00   -0.412810D-03    0.298662D-01
   0    34    0.999994D+00    0.993452D+00    0.304081D-03    0.187324D-01
   0    35    0.999963D+00    0.997656D+00    0.110696D-01    0.671126D-02
   0    36    0.999769D+00    0.100223D+01    0.491495D-01   -0.639851D-02
   0    37    0.998565D+00    0.100728D+01    0.556048D+00   -0.208397D-01
   0    38    0.991363D+00    0.101300D+01    0.197434D+00   -0.369930D-01
   0    39    0.951092D+00    0.101919D+01    0.185178D+02   -0.545438D-01
   0    40    0.749687D+00    0.102635D+01   -0.218254D+01   -0.734695D-01
   0    41    0.219189D+00    0.102887D+01   -0.376871D+02   -0.824072D-01
   0    42    0.491341D-01    0.102740D+01    0.158382D+02   -0.775089D-01
   0    43    0.157870D-01    0.102208D+01   -0.473597D+01   -0.622999D-01
   0    44    0.883851D-02    0.101713D+01    0.375544D+01   -0.488799D-01
   0    45    0.817711D-02    0.101347D+01    0.137383D+01   -0.382276D-01
   0    46    0.880364D-02    0.101075D+01   -0.603827D+00   -0.306245D-01
   0    47    0.968975D-02    0.100866D+01   -0.210254D+01   -0.245855D-01
   0    48    0.101143D-01    0.100688D+01   -0.222520D+01   -0.195955D-01
   0    49    0.107254D-01    0.100646D+01   -0.543791D+01   -0.185243D-01
   0    50    0.110366D-01    0.100504D+01    0.408033D+01   -0.143426D-01
   0    51    0.113331D-01    0.100524D+01   -0.129004D+01   -0.148762D-01
   0    52    0.112057D-01    0.100451D+01    0.302523D+01   -0.129540D-01
   0    53    0.117302D-01    0.100376D+01   -0.126213D+01   -0.103228D-01
   0    54    0.118380D-01    0.100452D+01   -0.436448D+01   -0.131696D-01
   0    55    0.123309D-01    0.100359D+01    0.268366D+01   -0.106256D-01
   0    56    0.125726D-01    0.100353D+01   -0.380575D+01   -0.108312D-01
   0    57    0.124504D-01    0.100255D+01   -0.955247D+00   -0.760202D-02
   0    58    0.128702D-01    0.100214D+01   -0.163985D+00   -0.632694D-02
   0    59    0.127124D-01    0.100135D+01    0.134494D+01   -0.365570D-02
   0    60    0.127547D-01    0.100155D+01    0.322782D+00   -0.413526D-02
   0    61    0.128886D-01    0.100049D+01    0.355310D+01   -0.183771D-02
   0    62    0.130944D-01    0.100045D+01    0.328002D+01   -0.114632D-02
   0    63    0.135604D-01    0.100030D+01    0.317535D+01   -0.112175D-02
   0    64    0.140158D-01    0.999567D+00   -0.657784D+01    0.649696D-03
   0    65    0.139646D-01    0.999570D+00    0.516327D+01    0.157940D-02
   0    66    0.136082D-01    0.999397D+00    0.712065D+01    0.197108D-02
   0    67    0.136395D-01    0.998654D+00    0.466439D+01    0.416479D-02
   0    68    0.139683D-01    0.998400D+00    0.286651D+01    0.435766D-02
   0    69    0.141706D-01    0.997600D+00   -0.106666D+01    0.705099D-02
   0    70    0.144457D-01    0.997019D+00    0.457586D+01    0.893515D-02
   0    71    0.144801D-01    0.996621D+00   -0.543703D+01    0.971721D-02
   0    72    0.143398D-01    0.997152D+00    0.519694D+01    0.745815D-02
   0    73    0.142931D-01    0.996783D+00   -0.747541D+01    0.882594D-02
   0    74    0.146134D-01    0.997122D+00   -0.449281D+01    0.871415D-02
   0    75    0.147412D-01    0.998163D+00    0.761630D+01    0.469220D-02
   0    76    0.144583D-01    0.998342D+00   -0.570502D+01    0.493054D-02
   0    77    0.146330D-01    0.999038D+00    0.389145D+01    0.225387D-02
   0    78    0.151472D-01    0.998731D+00   -0.106234D+01    0.392449D-02
   0    79    0.148534D-01    0.997147D+00    0.941506D+01    0.816269D-02
   0    80    0.149390D-01    0.996234D+00   -0.151802D+01    0.113579D-01
   0    81    0.149624D-01    0.996490D+00   -0.315911D+01    0.937042D-02
   0    82    0.150876D-01    0.997432D+00   -0.477919D+01    0.744502D-02
   0    83    0.150081D-01    0.997746D+00   -0.488657D+01    0.619876D-02
   0    84    0.151300D-01    0.997107D+00    0.440833D+01    0.900783D-02
   0    85    0.149992D-01    0.996755D+00    0.268973D+01    0.984249D-02
   0    86    0.153940D-01    0.996633D+00    0.628597D+01    0.913299D-02
   0    87    0.154553D-01    0.997219D+00    0.703192D+01    0.765814D-02
   0    88    0.155510D-01    0.997453D+00    0.382187D+01    0.680395D-02
   0    89    0.154145D-01    0.997612D+00   -0.291391D+01    0.671822D-02
   0    90    0.154969D-01    0.996916D+00    0.344895D+01    0.826099D-02
   0    91    0.149535D-01    0.996826D+00   -0.677310D+00    0.907806D-02
   0    92    0.153542D-01    0.997061D+00   -0.402447D+01    0.848383D-02
   0    93    0.157589D-01    0.997256D+00    0.783930D+01    0.829746D-02
   0    94    0.154970D-01    0.997875D+00    0.792014D+01    0.602462D-02
   0    95    0.152945D-01    0.996360D+00    0.845050D+01    0.103228D-01
   0    96    0.157855D-01    0.995785D+00   -0.102680D+02    0.128245D-01
   0    97    0.157619D-01    0.996707D+00   -0.897227D+01    0.100238D-01
   0    98    0.158681D-01    0.996398D+00   -0.101723D+01    0.102886D-01
   0    99    0.157495D-01    0.997474D+00   -0.670152D+01    0.713330D-02
   0   100    0.157015D-01    0.997489D+00    0.418175D+01    0.647605D-02
   0   101    0.158403D-01    0.996535D+00    0.607213D+01    0.101863D-01
   0   102    0.156858D-01    0.996207D+00   -0.609512D+01    0.114130D-01
   0   103    0.153376D-01    0.996202D+00    0.170224D+01    0.111811D-01
   0   104    0.152963D-01    0.995948D+00   -0.771142D+01    0.114964D-01
   0   105    0.152274D-01    0.996393D+00    0.676178D+01    0.994243D-02
   0   106    0.155237D-01    0.996781D+00    0.138983D+01    0.967536D-02
   0   107    0.157534D-01    0.995808D+00   -0.881049D+01    0.125303D-01
   0   108    0.157276D-01    0.995205D+00   -0.421823D+01    0.133111D-01
   0   109    0.153759D-01    0.995143D+00   -0.468711D+01    0.145492D-01
   0   110    0.154823D-01    0.995185D+00    0.797269D+01    0.128242D-01
   0   111    0.159127D-01    0.995069D+00   -0.248727D+01    0.136300D-01
   0   112    0.154985D-01    0.996081D+00    0.796183D+00    0.110770D-01
   0   113    0.155221D-01    0.996959D+00   -0.806839D+00    0.880891D-02
   0   114    0.155669D-01    0.996640D+00    0.181255D+01    0.101379D-01
   0   115    0.157231D-01    0.996348D+00   -0.219622D+01    0.985866D-02
   0   116    0.155302D-01    0.995550D+00    0.617856D+01    0.129126D-01
   0   117    0.155000D-01    0.995469D+00   -0.111585D+01    0.131988D-01
   0   118    0.154449D-01    0.996247D+00    0.822114D+01    0.102606D-01
   0   119    0.150221D-01    0.996589D+00   -0.398071D+01    0.949929D-02
   0   120    0.156090D-01    0.995221D+00   -0.141008D+01    0.131569D-01
   0   121    0.156244D-01    0.995578D+00    0.650132D+01    0.127601D-01
   0   122    0.154402D-01    0.996514D+00    0.940388D+01    0.105540D-01
   0   123    0.157228D-01    0.996213D+00   -0.501985D+01    0.107160D-01
   0   124    0.155171D-01    0.995490D+00    0.378262D+01    0.120743D-01
   0   125    0.153425D-01    0.995344D+00   -0.114606D+00    0.137481D-01
   0   126    0.154896D-01    0.996039D+00    0.836222D+01    0.114638D-01
   0   127    0.154036D-01    0.996155D+00    0.511040D+01    0.109076D-01
   0   128    0.159965D-01    0.996375D+00    0.332160D+01    0.107400D-01
   0   129    0.156573D-01    0.995307D+00   -0.812471D+01    0.141704D-01
   0   130    0.154276D-01    0.995341D+00    0.916002D+01    0.140482D-01
   0   131    0.154005D-01    0.996835D+00   -0.466601D+01    0.911911D-02
   0   132    0.152876D-01    0.996056D+00   -0.713572D+01    0.113272D-01
   0   133    0.158391D-01    0.996262D+00   -0.623523D+01    0.109899D-01
   0   134    0.158729D-01    0.995607D+00   -0.208939D+01    0.123522D-01
   0   135    0.153791D-01    0.997035D+00    0.886939D+00    0.871877D-02
   0   136    0.153421D-01    0.995832D+00   -0.207787D+01    0.119937D-01
   0   137    0.154393D-01    0.996269D+00    0.140568D+01    0.111046D-01
   0   138    0.155663D-01    0.996777D+00    0.247326D+01    0.881623D-02
   0   139    0.153292D-01    0.997806D+00    0.771479D+01    0.560718D-02
   0   140    0.152229D-01    0.997211D+00    0.279219D+01    0.743570D-02
   0   141    0.153546D-01    0.996626D+00    0.566215D+00    0.893026D-02
   0   142    0.155195D-01    0.995726D+00   -0.407987D+01    0.124776D-01
   0   143    0.150104D-01    0.996626D+00   -0.597366D+01    0.930506D-02
   0   144    0.152583D-01    0.996296D+00    0.844993D+01    0.107003D-01
   0   145    0.154204D-01    0.995645D+00    0.221113D+01    0.117632D-01
   0   146    0.153135D-01    0.995527D+00   -0.243473D+01    0.129379D-01
   0   147    0.150159D-01    0.995442D+00    0.209877D+01    0.124792D-01
   0   148    0.151268D-01    0.996755D+00    0.406365D+01    0.858467D-02
   0   149    0.155350D-01    0.996619D+00   -0.111238D+01    0.915286D-02
   0   150    0.154656D-01    0.998418D+00   -0.619929D+00    0.477088D-02
   0   151    0.155649D-01    0.997388D+00    0.814059D+01    0.705351D-02
   0   152    0.152744D-01    0.996129D+00    0.795882D+01    0.118891D-01
   0   153    0.150882D-01    0.997185D+00    0.568494D+01    0.842323D-02
   0   154    0.155622D-01    0.996177D+00    0.125238D+00    0.109915D-01
   0   155    0.156185D-01    0.997089D+00    0.247476D+01    0.855079D-02
   0   156    0.155183D-01    0.996650D+00   -0.816202D+01    0.935036D-02
   0   157    0.154700D-01    0.995896D+00   -0.424750D+01    0.118647D-01
   0   158    0.151536D-01    0.996349D+00   -0.739000D+01    0.110356D-01
   0   159    0.154057D-01    0.994762D+00   -0.382210D+01    0.143683D-01
   0   160    0.152548D-01    0.995882D+00   -0.308526D+01    0.114591D-01
   0   161    0.155282D-01    0.997083D+00    0.274187D+01    0.836287D-02
   0   162    0.153601D-01    0.997973D+00    0.595580D+01    0.578608D-02
   0   163    0.149030D-01    0.997502D+00    0.130466D+01    0.721699D-02
   0   164    0.153391D-01    0.997068D+00    0.453913D+01    0.851047D-02
   0   165    0.147814D-01    0.997425D+00   -0.432335D+01    0.821588D-02
   0   166    0.155386D-01    0.996433D+00   -0.586128D+01    0.941901D-02
   0   167    0.153397D-01    0.996519D+00   -0.277464D+01    0.103659D-01
   0   168    0.152205D-01    0.995071D+00    0.433999D+01    0.141514D-01
   0   169    0.148547D-01    0.995927D+00   -0.408036D+01    0.121469D-01
   0   170    0.151545D-01    0.995453D+00    0.387455D+01    0.128974D-01
   0   171    0.152878D-01    0.997391D+00    0.462768D+01    0.663858D-02
   0   172    0.152309D-01    0.997062D+00   -0.305071D+01    0.803252D-02
   0   173    0.150036D-01    0.997530D+00    0.814328D+00    0.719723D-02
   0   174    0.146164D-01    0.997728D+00    0.858267D+01    0.663534D-02
   0   175    0.149276D-01    0.998052D+00   -0.590446D+01    0.523601D-02
   0   176    0.152067D-01    0.996888D+00   -0.262499D+01    0.817379D-02
   0   177    0.152562D-01    0.997409D+00    0.263255D+01    0.787703D-02
   0   178    0.149196D-01    0.997183D+00    0.503203D+01    0.755252D-02
   0   179    0.146489D-01    0.997499D+00    0.117575D+01    0.759794D-02
   0   180    0.149605D-01    0.998147D+00    0.240302D+01    0.564080D-02
   0   181    0.148471D-01    0.997722D+00    0.691538D+01    0.619558D-02
   0   182    0.149380D-01    0.998091D+00    0.482402D+01    0.633768D-02
   0   183    0.154385D-01    0.997708D+00    0.646353D+01    0.627085D-02
   0   184    0.148790D-01    0.997799D+00    0.178417D+01    0.624428D-02
   0   185    0.145864D-01    0.997789D+00    0.336753D+01    0.649510D-02
   0   186    0.145048D-01    0.997714D+00    0.876164D+01    0.571036D-02
   0   187    0.147477D-01    0.996705D+00    0.730974D+01    0.993922D-02
   0   188    0.149696D-01    0.997422D+00    0.194605D+01    0.716141D-02
   0   189    0.148705D-01    0.998082D+00    0.518618D+01    0.511079D-02
   0   190    0.148491D-01    0.997014D+00    0.420246D+01    0.777769D-02
   0   191    0.147076D-01    0.995602D+00    0.449514D+00    0.125275D-01
   0   192    0.149104D-01    0.995920D+00    0.361038D+01    0.111215D-01
   0   193    0.150319D-01    0.996053D+00   -0.224593D+01    0.114987D-01
   0   194    0.148892D-01    0.997510D+00    0.609359D+01    0.730259D-02
   0   195    0.148050D-01    0.997505D+00    0.833738D+00    0.656493D-02
   0   196    0.150189D-01    0.997191D+00   -0.346425D+01    0.864970D-02
   0   197    0.149757D-01    0.997828D+00   -0.563225D+01    0.659944D-02
   0   198    0.149839D-01    0.998028D+00   -0.423282D+01    0.577275D-02
   0   199    0.148514D-01    0.998306D+00    0.463260D+01    0.421844D-02
   0   200    0.148969D-01    0.997344D+00    0.750163D+01    0.693701D-02
   0   201    0.148296D-01    0.997246D+00   -0.178647D+01    0.729211D-02
   0   202    0.147832D-01    0.997845D+00    0.696203D+00    0.570457D-02
   0   203    0.145684D-01    0.997869D+00    0.489096D+01    0.596168D-02
   0   204    0.148600D-01    0.997676D+00   -0.965235D+01    0.744443D-02
   0   205    0.146254D-01    0.996768D+00   -0.225532D+01    0.981049D-02
   0   206    0.145139D-01    0.996079D+00   -0.240146D+01    0.113015D-01
   0   207    0.145293D-01    0.997673D+00   -0.109444D+01    0.704278D-02
   0   208    0.148023D-01    0.997962D+00   -0.287503D+01    0.568919D-02
   0   209    0.147820D-01    0.997713D+00    0.445372D+00    0.668867D-02
   0   210    0.146947D-01    0.997595D+00    0.748127D+01    0.635984D-02
   0   211    0.143146D-01    0.996879D+00    0.118739D+01    0.912865D-02
   0   212    0.146188D-01    0.996320D+00    0.749114D+01    0.110370D-01
   0   213    0.144964D-01    0.996893D+00    0.568733D+01    0.889589D-02
   0   214    0.147550D-01    0.997835D+00    0.583294D+01    0.637613D-02
   0   215    0.142988D-01    0.997624D+00    0.231047D+01    0.617100D-02
   0   216    0.145423D-01    0.997538D+00    0.518099D+01    0.653985D-02
   0   217    0.145080D-01    0.997598D+00    0.561369D+01    0.679025D-02
   0   218    0.141634D-01    0.998112D+00   -0.299493D+01    0.549210D-02
   0   219    0.143419D-01    0.998095D+00   -0.397673D+01    0.557987D-02
   0   220    0.141455D-01    0.997278D+00    0.692269D+00    0.736826D-02
   0   221    0.144807D-01    0.997317D+00   -0.143134D+01    0.814382D-02
   0   222    0.146741D-01    0.996734D+00    0.466565D+01    0.924512D-02
   0   223    0.143474D-01    0.997285D+00    0.817898D+01    0.719254D-02
   0   224    0.139040D-01    0.997768D+00    0.404105D+01    0.665664D-02
   0   225    0.141050D-01    0.997347D+00    0.441753D+01    0.696433D-02
   0   226    0.143713D-01    0.996888D+00    0.659742D+01    0.963306D-02
   0   227    0.142999D-01    0.996776D+00    0.447256D+01    0.879492D-02
   0   228    0.144762D-01    0.997715D+00    0.546914D+01    0.621724D-02
   0   229    0.146820D-01    0.998362D+00    0.268108D+01    0.408266D-02
   0   230    0.143609D-01    0.998590D+00    0.272113D+01    0.423619D-02
   0   231    0.143713D-01    0.998561D+00    0.710057D+01    0.442285D-02
   0   232    0.144103D-01    0.998166D+00   -0.714602D+01    0.538521D-02
   0   233    0.142752D-01    0.998969D+00    0.541787D+01    0.251462D-02
   0   234    0.142166D-01    0.998993D+00    0.242509D+01    0.327985D-02
   0   235    0.149868D-01    0.999132D+00    0.394006D+01    0.221090D-02
   0   236    0.148584D-01    0.998854D+00   -0.534125D+01    0.246939D-02
   0   237    0.139998D-01    0.997676D+00    0.401339D+01    0.643943D-02
   0   238    0.143029D-01    0.998047D+00    0.571308D+01    0.552744D-02
   0   239    0.143927D-01    0.997860D+00    0.767439D+01    0.591511D-02
   0   240    0.141936D-01    0.998952D+00   -0.112594D+01    0.267589D-02
   0   241    0.138651D-01    0.998152D+00    0.879324D+01    0.526224D-02
   0   242    0.142863D-01    0.998395D+00    0.306409D+00    0.508430D-02
   0   243    0.141930D-01    0.997584D+00   -0.557316D+01    0.746370D-02
   0   244    0.146235D-01    0.997053D+00    0.344359D+01    0.899208D-02
   0   245    0.142943D-01    0.996490D+00    0.569551D+00    0.107637D-01
   0   246    0.142138D-01    0.996612D+00    0.426955D+01    0.991293D-02
   0   247    0.143337D-01    0.996114D+00    0.230184D+01    0.110331D-01
   0   248    0.147706D-01    0.996666D+00    0.637737D+01    0.985789D-02
   0   249    0.142608D-01    0.998004D+00    0.141804D+01    0.563215D-02
   0   250    0.143687D-01    0.997855D+00    0.780599D+01    0.605534D-02
   0   251    0.141654D-01    0.998066D+00    0.175587D+00    0.514554D-02
   0   252    0.143316D-01    0.997922D+00    0.385607D+01    0.655754D-02
   0   253    0.144756D-01    0.998495D+00   -0.129416D+01    0.483593D-02
   0   254    0.140775D-01    0.999154D+00    0.143798D+01    0.264929D-02
   0   255    0.140715D-01    0.997687D+00   -0.108464D+01    0.712930D-02
   0   256    0.138041D-01    0.999414D+00    0.632310D+01    0.160224D-02
   0   257    0.136027D-01    0.999428D+00    0.249283D+01    0.127838D-02
   0   258    0.141467D-01    0.999547D+00    0.471195D+01    0.146706D-02
   0   259    0.138606D-01    0.100083D+01    0.491429D+00   -0.211093D-02
   0   260    0.138178D-01    0.999457D+00    0.291269D+01    0.179044D-02
   0   261    0.137812D-01    0.999838D+00    0.830892D+01    0.797648D-03
   0   262    0.136443D-01    0.999890D+00    0.495275D+01    0.398147D-03
   0   263    0.137942D-01    0.999396D+00    0.406855D+01    0.120667D-02
   0   264    0.138830D-01    0.999683D+00   -0.451057D+01    0.131794D-02
   0   265    0.134957D-01    0.100081D+01   -0.282784D+01   -0.206177D-02
   0   266    0.137802D-01    0.999809D+00   -0.344363D+01    0.734828D-03
   0   267    0.138497D-01    0.998842D+00    0.315012D+01    0.396760D-02
   0   268    0.135449D-01    0.998025D+00    0.503402D+01    0.548950D-02
   0   269    0.137987D-01    0.998064D+00    0.445084D+01    0.554617D-02
   0   270    0.140589D-01    0.998254D+00   -0.583304D+01    0.515709D-02
   0   271    0.138954D-01    0.999089D+00    0.267561D+01    0.277104D-02
   0   272    0.138436D-01    0.999527D+00    0.197679D+01    0.155437D-02
   0   273    0.140331D-01    0.998789D+00    0.670713D+01    0.363188D-02
   0   274    0.137628D-01    0.998509D+00    0.615341D+01    0.456424D-02
   0   275    0.141128D-01    0.998969D+00    0.734145D+01    0.323756D-02
   0   276    0.140999D-01    0.998858D+00   -0.244564D+01    0.259414D-02
   0   277    0.140041D-01    0.999571D+00   -0.770915D+01    0.121757D-02
   0   278    0.140624D-01    0.999352D+00    0.528754D+01    0.222945D-02
   0   279    0.138625D-01    0.100030D+01   -0.632646D+01   -0.593730D-03
   0   280    0.138653D-01    0.999558D+00    0.370285D+01    0.155807D-02
   0   281    0.141453D-01    0.100005D+01    0.669097D+01   -0.304724D-03
   0   282    0.143480D-01    0.100004D+01    0.731280D+01    0.247009D-03
   0   283    0.139484D-01    0.998624D+00    0.608311D+01    0.328684D-02
   0   284    0.140426D-01    0.998324D+00   -0.641842D+01    0.463780D-02
   0   285    0.140718D-01    0.999177D+00   -0.131360D+01    0.226775D-02
   0   286    0.141068D-01    0.997551D+00   -0.829586D+01    0.706905D-02
   0   287    0.142144D-01    0.996825D+00   -0.627773D+00    0.949042D-02
   0   288    0.143304D-01    0.997426D+00   -0.627902D+01    0.732103D-02
   0   289    0.145404D-01    0.999340D+00    0.527046D+01    0.125885D-02
   0   290    0.143667D-01    0.998051D+00   -0.453079D+01    0.598141D-02
   0   291    0.148811D-01    0.997577D+00   -0.915545D+01    0.725912D-02
   0   292    0.144078D-01    0.997048D+00    0.132544D+01    0.836580D-02
   0   293    0.140863D-01    0.996481D+00    0.481787D+01    0.103837D-01
   0   294    0.149946D-01    0.996564D+00   -0.554619D+01    0.969694D-02
   0   295    0.149568D-01    0.996727D+00   -0.715839D+01    0.927915D-02
   0   296    0.151537D-01    0.996547D+00    0.885063D+01    0.106643D-01
   0   297    0.151872D-01    0.996314D+00   -0.408151D+01    0.109761D-01
   0   298    0.157325D-01    0.995609D+00    0.438293D+01    0.131599D-01
   0   299    0.159214D-01    0.993765D+00   -0.580693D+01    0.173612D-01
   0   300    0.172936D-01    0.991613D+00    0.372797D+01    0.231446D-01
   0   301    0.180576D-01    0.988834D+00   -0.904992D+01    0.312811D-01
   0   302    0.194893D-01    0.984415D+00    0.576985D+01    0.451901D-01
   0   303    0.212065D-01    0.976231D+00   -0.212629D+00    0.675583D-01
   0   304    0.234920D-01    0.965239D+00   -0.554351D+01    0.965538D-01
   0   305    0.271049D-01    0.943744D+00   -0.156046D+02    0.146553D+00
   0   306    0.280694D-01    0.910916D+00   -0.262022D+01    0.208346D+00
   0   307    0.252332D-01    0.861513D+00    0.887625D+01    0.271168D+00
   0   308    0.177128D-01    0.787852D+00    0.153582D+00    0.324041D+00
   0   309    0.108632D-01    0.693230D+00    0.321426D+01    0.359868D+00
   0   310    0.499542D-02    0.585432D+00    0.374808D+01    0.382287D+00
   0   311    0.216673D-02    0.476757D+00    0.113442D+01    0.395957D+00
   0   312    0.845650D-03    0.375977D+00    0.179128D+00    0.404513D+00
   0   313    0.313227D-03    0.288327D+00    0.269142D+00    0.410030D+00
   0   314    0.109772D-03    0.215843D+00    0.339569D-01    0.413678D+00
   0   315    0.368042D-04    0.158224D+00    0.394338D-01    0.416136D+00
   0   316    0.122449D-04    0.113874D+00    0.123485D-01    0.417814D+00
   0   317    0.384013D-05    0.806405D-01    0.181077D-02    0.418966D+00
   0   318    0.123237D-05    0.563014D-01    0.188597D-03    0.419759D+00
   0   319    0.368338D-06    0.388225D-01    0.186260D-03    0.420304D+00
   0   320    0.107374D-06    0.264805D-01    0.515102D-04    0.420677D+00
   0   321    0.315158D-07    0.178917D-01    0.149318D-04    0.420931D+00
   0   322    0.925532D-08    0.119894D-01    0.373877D-05    0.421104D+00
   0   323    0.264713D-08    0.797694D-02    0.342264D-05    0.421219D+00
   0   324    0.755905D-09    0.527444D-02    0.598944D-06    0.421297D+00
   0   325    0.220942D-09    0.346879D-02    0.140475D-06    0.421349D+00
   0   326    0.698922D-10    0.227064D-02    0.566373D-07    0.421383D+00
   0   327    0.211750D-10    0.148033D-02    0.195065D-07    0.421405D+00
   0   328    0.662933D-11    0.961697D-03    0.206171D-08    0.421420D+00
   0   329    0.188813D-11    0.622854D-03    0.197976D-08    0.421429D+00
   0   330    0.563496D-12    0.402323D-03    0.652516D-09    0.421436D+00
   0   331    0.161291D-12    0.259270D-03    0.149193D-09    0.421440D+00
   0   332    0.475110D-13    0.166743D-03    0.150974D-10    0.421442D+00
   0   333    0.133254D-13    0.107046D-03    0.170296D-10    0.421444D+00
   0   334    0.380404D-14    0.686148D-04    0.373318D-11    0.421445D+00
   0   335    0.105604D-14    0.439209D-04    0.809718D-12    0.421446D+00
   0   336    0.290057D-15    0.280805D-04    0.172770D-12    0.421446D+00
   0   337    0.798553D-16    0.179341D-04    0.194147D-13    0.421447D+00
   0   338    0.218032D-16    0.114433D-04    0.193360D-13    0.421447D+00
   0   339    0.605007D-17    0.729572D-05    0.378850D-14    0.421447D+00
   0   340    0.150725D-17    0.464804D-05    0.826732D-15    0.421447D+00
   0   341    0.405183D-18    0.295932D-05    0.317154D-15    0.421447D+00
   0   342    0.105685D-18    0.188307D-05    0.122784D-15    0.421447D+00
   0   343    0.269802D-19    0.119762D-05    0.131781D-16    0.421447D+00
   0   344    0.711316D-20    0.761338D-06    0.226142D-17    0.421447D+00
   0   345    0.185606D-20    0.483791D-06    0.899966D-18    0.421447D+00
   0   346    0.460049D-21    0.307312D-06    0.444752D-18    0.421447D+00
   0   347    0.112287D-21    0.195145D-06    0.593942D-19    0.421447D+00
   0   348    0.289465D-22    0.123881D-06    0.968403D-20    0.421447D+00
   0   349    0.732181D-23    0.786203D-07    0.288077D-20    0.421447D+00
   0   350    0.186984D-23    0.498835D-07    0.135878D-20    0.421447D+00
   0   351    0.463816D-24    0.316431D-07    0.437277D-21    0.421447D+00
   0   352    0.113248D-24    0.200683D-07    0.125776D-21    0.421447D+00
   0   353    0.281936D-25    0.127250D-07    0.242459D-22    0.421447D+00
   0   354    0.720078D-26    0.806733D-08    0.653802D-23    0.421447D+00
   0   355    0.175157D-26    0.511361D-08    0.985809D-24    0.421447D+00
   0   356    0.433216D-27    0.324086D-08    0.312256D-24    0.421447D+00
   0   357    0.111168D-27    0.205366D-08    0.530653D-25    0.421447D+00
   0   358    0.269677D-28    0.130119D-08    0.923211D-26    0.421447D+00
   0   359    0.660142D-29    0.824328D-09    0.305421D-26    0.421447D+00
   0   360    0.157106D-29    0.522166D-09    0.220700D-26    0.421447D+00
   0   361    0.380837D-30    0.330728D-09    0.134162D-27    0.421447D+00
   0   362    0.953823D-31    0.209455D-09    0.600644D-28    0.421447D+00
   0   363    0.232198D-31    0.132639D-09    0.674720D-29    0.421447D+00
   0   364    0.570343D-32    0.839871D-10    0.313678D-29    0.421447D+00
   0   365    0.137872D-32    0.531767D-10    0.115946D-29    0.421447D+00
   0   366    0.328023D-33    0.336665D-10    0.100375D-30    0.421447D+00
   0   367    0.783782D-34    0.213131D-10    0.649700D-31    0.421447D+00
   0   368    0.191535D-34    0.134917D-10    0.244219D-31    0.421447D+00
   0   369    0.453399D-35    0.854015D-11    0.188444D-32    0.421447D+00
   0   370    0.112495D-35    0.540556D-11    0.135261D-32    0.421447D+00
   0   371    0.271809D-36    0.342133D-11    0.317733D-33    0.421447D+00
   0   372    0.652302D-37    0.216537D-11    0.701619D-34    0.421447D+00
   0   373    0.159789D-37    0.137041D-11    0.155719D-34    0.421447D+00
   0   374    0.381214D-38    0.867273D-12    0.248092D-35    0.421447D+00
   0   375    0.881182D-39    0.548842D-12    0.705439D-36    0.421447D+00
   0   376    0.215089D-39    0.347317D-12    0.124366D-36    0.421447D+00
   0   377    0.521703D-40    0.219783D-12    0.313393D-37    0.421447D+00
   0   378    0.124734D-40    0.139077D-12    0.719768D-38    0.421447D+00
   0   379    0.299985D-41    0.880046D-13    0.215648D-38    0.421447D+00
   0   380    0.730443D-42    0.556865D-13    0.769948D-39    0.421447D+00
   0   381    0.177587D-42    0.352362D-13    0.185763D-39    0.421447D+00
   0   382    0.416187D-43    0.222958D-13    0.180487D-40    0.421447D+00
   0   383    0.982745D-44    0.141076D-13    0.106218D-40    0.421447D+00
   0   384    0.233082D-44    0.892648D-14    0.674275D-42    0.421447D+00
   0   385    0.581560D-45    0.564814D-14    0.323994D-42    0.421447D+00
   0   386    0.135598D-45    0.357379D-14    0.123083D-42    0.421447D+00
   0   387    0.326296D-46    0.226127D-14    0.392383D-43    0.421447D+00
   0   388    0.790936D-47    0.143078D-14    0.315636D-44    0.421447D+00
   0   389    0.191968D-47    0.905294D-15    0.232699D-44    0.421447D+00
   0   390    0.468111D-48    0.572785D-15    0.280413D-45    0.421447D+00
   0   391    0.113053D-48    0.362373D-15    0.658579D-46    0.421447D+00
   0   392    0.259345D-49    0.229203D-15    0.248316D-46    0.421447D+00
   0   393    0.636261D-50    0.144887D-15    0.591820D-47    0.421447D+00
   0   394    0.152120D-50    0.914533D-16    0.193704D-47    0.421447D+00
   0   395    0.364345D-51    0.575109D-16    0.136196D-48    0.421447D+00
   0   396    0.845478D-52    0.358252D-16    0.707154D-49    0.421447D+00
   0   397    0.196064D-52    0.217741D-16    0.148313D-49    0.421447D+00