variables =  "IG"  "JG"  "PHI"  "Temp."  "Latent_heat"  "mm"
ZONE  I=  401  J=  101
   0     0    0.100000D+01    0.912771D+00    0.000000D+00    0.205492D+00
   0     1    0.100000D+01    0.912771D+00    0.000000D+00    0.205492D+00
   0     2    0.100000D+01    0.912945D+00    0.000000D+00    0.205208D+00
   0     3    0.100000D+01    0.913294D+00    0.000000D+00    0.204640D+00
   0     4    0.100000D+01    0.913815D+00    0.000000D+00    0.203785D+00
   0     5    0.100000D+01    0.914507D+00    0.000000D+00    0.202643D+00
   0     6    0.100000D+01    0.915370D+00    0.000000D+00    0.201209D+00
   0     7    0.100000D+01    0.916401D+00    0.000000D+00    0.199479D+00
   0     8    0.100000D+01    0.917597D+00    0.000000D+00    0.197450D+00
   0     9    0.100000D+01    0.918956D+00    0.000000D+00    0.195115D+00
   0    10    0.100000D+01    0.920475D+00    0.000000D+00    0.192470D+00
   0    11    0.100000D+01    0.922150D+00    0.000000D+00    0.189507D+00
   0    12    0.100000D+01    0.923977D+00    0.000000D+00    0.186218D+00
   0    13    0.100000D+01    0.925953D+00    0.000000D+00    0.182597D+00
   0    14    0.100000D+01    0.928073D+00    0.000000D+00    0.178634D+00
   0    15    0.100000D+01    0.930333D+00    0.000000D+00    0.174321D+00
   0    16    0.100000D+01    0.932729D+00    0.000000D+00    0.169648D+00
   0    17    0.100000D+01    0.935256D+00    0.000000D+00    0.164606D+00
   0    18    0.100000D+01    0.937909D+00    0.000000D+00    0.159184D+00
   0    19    0.100000D+01    0.940685D+00    0.000000D+00    0.153373D+00
   0    20    0.100000D+01    0.943579D+00    0.000000D+00    0.147163D+00
   0    21    0.100000D+01    0.946586D+00    0.000000D+00    0.140543D+00
   0    22    0.100000D+01    0.949704D+00    0.133227D-10    0.133503D+00
   0    23    0.100000D+01    0.952930D+00    0.666134D-10    0.126032D+00
   0    24    0.100000D+01    0.956262D+00    0.142553D-08    0.118118D+00
   0    25    0.100000D+01    0.959701D+00   -0.333067D-09    0.109747D+00
   0    26    0.100000D+01    0.963247D+00   -0.374234D-07    0.100900D+00
   0    27    0.100000D+01    0.966908D+00    0.291087D-06    0.915536D-01
   0    28    0.100000D+01    0.970693D+00   -0.160576D-05    0.816727D-01
   0    29    0.100000D+01    0.974620D+00    0.173965D-04    0.712062D-01
   0    30    0.100000D+01    0.978716D+00    0.106597D-03    0.600770D-01
   0    31    0.999998D+00    0.983027D+00    0.708596D-03    0.481658D-01
   0    32    0.999989D+00    0.987620D+00   -0.138940D-02    0.352872D-01
   0    33    0.999932D+00    0.992601D+00   -0.237483D-01    0.211582D-01
   0    34    0.999570D+00    0.998127D+00    0.275163D+00    0.536435D-02
   0    35    0.997323D+00    0.100443D+01    0.154670D+01   -0.126911D-01
   0    36    0.984129D+00    0.101188D+01   -0.493244D+01   -0.337672D-01
   0    37    0.909449D+00    0.102133D+01    0.450108D+02   -0.593615D-01
   0    38    0.578734D+00    0.103224D+01    0.117869D+03   -0.873518D-01
   0    39    0.142361D+00    0.103022D+01    0.247202D+02   -0.859017D-01
   0    40    0.345704D-01    0.102508D+01   -0.793453D+01   -0.701145D-01
   0    41    0.131143D-01    0.101967D+01    0.522230D+01   -0.553800D-01
   0    42    0.878334D-02    0.101428D+01    0.370725D+01   -0.405995D-01
   0    43    0.870390D-02    0.101146D+01    0.190594D+01   -0.324178D-01
   0    44    0.919601D-02    0.100969D+01   -0.228957D+01   -0.275217D-01
   0    45    0.985024D-02    0.100779D+01   -0.124584D+01   -0.218306D-01
   0    46    0.106097D-01    0.100607D+01   -0.627630D+01   -0.176653D-01
   0    47    0.110949D-01    0.100486D+01   -0.279446D+01   -0.144031D-01
   0    48    0.112387D-01    0.100427D+01   -0.604696D+01   -0.118902D-01
   0    49    0.118303D-01    0.100387D+01    0.505865D+01   -0.113203D-01
   0    50    0.119459D-01    0.100353D+01   -0.327641D+01   -0.983113D-02
   0    51    0.118939D-01    0.100246D+01    0.677736D+00   -0.701857D-02
   0    52    0.118919D-01    0.100336D+01    0.643391D+01   -0.950247D-02
   0    53    0.120292D-01    0.100286D+01   -0.329353D+01   -0.856783D-02
   0    54    0.124472D-01    0.100264D+01    0.199575D+01   -0.770266D-02
   0    55    0.123152D-01    0.100164D+01   -0.579053D+01   -0.472408D-02
   0    56    0.126573D-01    0.100123D+01   -0.226318D+01   -0.304233D-02
   0    57    0.130434D-01    0.100144D+01    0.838431D+00   -0.377093D-02
   0    58    0.129948D-01    0.100052D+01    0.182240D+01   -0.164563D-02
   0    59    0.134403D-01    0.100069D+01    0.392995D+00   -0.226809D-02
   0    60    0.134763D-01    0.999978D+00    0.121423D+01   -0.343591D-03
   0    61    0.134678D-01    0.998187D+00    0.177046D+01    0.505032D-02
   0    62    0.134607D-01    0.999067D+00   -0.210875D+01    0.267166D-02
   0    63    0.137408D-01    0.998224D+00    0.425870D+01    0.430725D-02
   0    64    0.141114D-01    0.997303D+00    0.292170D-01    0.712650D-02
   0    65    0.139703D-01    0.998458D+00    0.650269D+01    0.474199D-02
   0    66    0.139491D-01    0.999826D+00    0.810366D+00    0.541700D-03
   0    67    0.143380D-01    0.998537D+00    0.511118D+01    0.408592D-02
   0    68    0.143368D-01    0.998423D+00   -0.532473D+01    0.437709D-02
   0    69    0.146811D-01    0.999247D+00    0.254802D+01    0.272409D-02
   0    70    0.143031D-01    0.100029D+01    0.556915D+01   -0.102250D-02
   0    71    0.144839D-01    0.998373D+00   -0.833325D+01    0.541085D-02
   0    72    0.143595D-01    0.998742D+00   -0.507302D+01    0.276586D-02
   0    73    0.144419D-01    0.998448D+00    0.235889D+01    0.399803D-02
   0    74    0.146779D-01    0.997999D+00   -0.453875D+01    0.638087D-02
   0    75    0.144153D-01    0.996968D+00   -0.375817D+01    0.910329D-02
   0    76    0.146907D-01    0.997073D+00    0.747806D+01    0.810749D-02
   0    77    0.151539D-01    0.997623D+00    0.644584D+01    0.705071D-02
   0    78    0.153890D-01    0.996764D+00    0.664156D+00    0.893075D-02
   0    79    0.152709D-01    0.996770D+00    0.596289D+01    0.903636D-02
   0    80    0.150640D-01    0.996577D+00   -0.215375D+01    0.947910D-02
   0    81    0.153251D-01    0.996721D+00    0.650607D+01    0.905194D-02
   0    82    0.151280D-01    0.996622D+00    0.704696D+01    0.956397D-02
   0    83    0.146216D-01    0.997210D+00    0.860840D+01    0.775176D-02
   0    84    0.147069D-01    0.996279D+00    0.871593D+01    0.113540D-01
   0    85    0.153832D-01    0.995888D+00   -0.451850D+01    0.113479D-01
   0    86    0.153392D-01    0.996515D+00   -0.370913D+01    0.102817D-01
   0    87    0.154033D-01    0.996776D+00   -0.202738D+01    0.999289D-02
   0    88    0.154745D-01    0.995979D+00    0.193607D+01    0.111023D-01
   0    89    0.152987D-01    0.996007D+00   -0.794334D+01    0.107509D-01
   0    90    0.152969D-01    0.994985D+00   -0.764599D+00    0.138901D-01
   0    91    0.155353D-01    0.996201D+00    0.257564D+01    0.112244D-01
   0    92    0.152156D-01    0.998043D+00    0.802641D+01    0.483902D-02
   0    93    0.154592D-01    0.997545D+00   -0.523136D+01    0.660845D-02
   0    94    0.151753D-01    0.996605D+00   -0.348554D+01    0.946626D-02
   0    95    0.152997D-01    0.995545D+00   -0.814530D+00    0.125953D-01
   0    96    0.149431D-01    0.996001D+00    0.152852D+01    0.112727D-01
   0    97    0.147627D-01    0.997043D+00    0.895320D+01    0.841338D-02
   0    98    0.148812D-01    0.997442D+00   -0.409240D+01    0.716670D-02
   0    99    0.153901D-01    0.997854D+00    0.658612D+01    0.640527D-02
   0   100    0.155488D-01    0.997494D+00   -0.425725D+01    0.643480D-02
   0   101    0.152835D-01    0.997088D+00    0.423966D+01    0.793505D-02
   0   102    0.152470D-01    0.996641D+00   -0.484794D+01    0.935961D-02
   0   103    0.153669D-01    0.996828D+00    0.440564D+01    0.935795D-02
   0   104    0.154629D-01    0.998305D+00   -0.708975D+00    0.489408D-02
   0   105    0.154492D-01    0.998226D+00    0.826717D+01    0.504623D-02
   0   106    0.155118D-01    0.997381D+00    0.703370D+01    0.731222D-02
   0   107    0.153605D-01    0.997034D+00    0.507882D+01    0.886673D-02
   0   108    0.151946D-01    0.997280D+00    0.275564D+01    0.708916D-02
   0   109    0.154590D-01    0.997329D+00    0.263652D+00    0.759445D-02
   0   110    0.151513D-01    0.995781D+00    0.454390D+01    0.114473D-01
   0   111    0.150986D-01    0.997003D+00    0.568455D+01    0.873539D-02
   0   112    0.150999D-01    0.996988D+00   -0.700598D+01    0.902771D-02
   0   113    0.154320D-01    0.996806D+00    0.241525D+01    0.963844D-02
   0   114    0.154702D-01    0.997286D+00    0.773861D+01    0.782269D-02
   0   115    0.156823D-01    0.996583D+00   -0.613351D+01    0.940904D-02
   0   116    0.154926D-01    0.996398D+00    0.197152D+00    0.101818D-01
   0   117    0.154414D-01    0.995771D+00   -0.374816D+01    0.117343D-01
   0   118    0.154032D-01    0.997524D+00   -0.290439D+01    0.716964D-02
   0   119    0.155811D-01    0.998145D+00    0.752907D+01    0.556766D-02
   0   120    0.148950D-01    0.997333D+00    0.624043D+01    0.731826D-02
   0   121    0.149788D-01    0.996772D+00   -0.488954D+01    0.968465D-02
   0   122    0.148100D-01    0.995853D+00    0.842490D+01    0.114032D-01
   0   123    0.154105D-01    0.996823D+00    0.111420D+01    0.921452D-02
   0   124    0.151130D-01    0.996222D+00    0.932756D+01    0.106785D-01
   0   125    0.151833D-01    0.996387D+00    0.533893D+00    0.109647D-01
   0   126    0.150148D-01    0.997198D+00   -0.467913D+01    0.833839D-02
   0   127    0.151378D-01    0.997249D+00    0.431509D+01    0.776301D-02
   0   128    0.152794D-01    0.997332D+00    0.220345D+01    0.753464D-02
   0   129    0.149928D-01    0.996941D+00    0.637438D+01    0.901115D-02
   0   130    0.153746D-01    0.996481D+00   -0.540752D+01    0.101901D-01
   0   131    0.152813D-01    0.995564D+00   -0.192237D+01    0.125846D-01
   0   132    0.150530D-01    0.996445D+00   -0.230163D+01    0.953150D-02
   0   133    0.150555D-01    0.996416D+00   -0.236709D+01    0.104455D-01
   0   134    0.153788D-01    0.997594D+00    0.579267D+01    0.710996D-02
   0   135    0.152383D-01    0.997448D+00    0.751664D+01    0.671334D-02
   0   136    0.151186D-01    0.996718D+00   -0.147781D+01    0.887844D-02
   0   137    0.151356D-01    0.995979D+00    0.604190D+01    0.109879D-01
   0   138    0.149642D-01    0.997260D+00    0.198841D+01    0.788391D-02
   0   139    0.151251D-01    0.997361D+00   -0.361227D+01    0.710114D-02
   0   140    0.150734D-01    0.997315D+00   -0.806470D+01    0.795117D-02
   0   141    0.149660D-01    0.997496D+00   -0.976865D+00    0.712220D-02
   0   142    0.150273D-01    0.996950D+00    0.899982D+01    0.913768D-02
   0   143    0.152987D-01    0.997065D+00    0.586911D+01    0.851957D-02
   0   144    0.152164D-01    0.997262D+00   -0.731601D+01    0.833599D-02
   0   145    0.151671D-01    0.996884D+00    0.421231D+01    0.887450D-02
   0   146    0.148592D-01    0.997567D+00   -0.839355D+00    0.704179D-02
   0   147    0.148737D-01    0.996651D+00    0.623437D+01    0.979898D-02
   0   148    0.144137D-01    0.997297D+00    0.805392D+01    0.762420D-02
   0   149    0.148144D-01    0.998523D+00   -0.774998D+00    0.468930D-02
   0   150    0.145919D-01    0.998075D+00   -0.500670D+01    0.590474D-02
   0   151    0.148516D-01    0.997104D+00    0.576937D+01    0.843374D-02
   0   152    0.150347D-01    0.996782D+00    0.641245D+01    0.853677D-02
   0   153    0.147531D-01    0.996337D+00    0.183973D+01    0.110507D-01
   0   154    0.147107D-01    0.997235D+00    0.776331D+01    0.796987D-02
   0   155    0.150261D-01    0.996974D+00   -0.890304D+01    0.812927D-02
   0   156    0.152550D-01    0.997579D+00   -0.199116D+01    0.639675D-02
   0   157    0.152958D-01    0.997384D+00    0.522940D+01    0.683237D-02
   0   158    0.153243D-01    0.997821D+00   -0.334804D+01    0.548643D-02
   0   159    0.150401D-01    0.997837D+00    0.291909D+01    0.637498D-02
   0   160    0.150882D-01    0.997364D+00   -0.878817D+01    0.792077D-02
   0   161    0.146805D-01    0.997515D+00   -0.271598D+01    0.665398D-02
   0   162    0.149340D-01    0.997161D+00    0.406322D+01    0.799690D-02
   0   163    0.155463D-01    0.998081D+00    0.581569D+01    0.568050D-02
   0   164    0.150375D-01    0.996972D+00    0.429370D+01    0.831239D-02
   0   165    0.147187D-01    0.996839D+00   -0.150647D+01    0.864068D-02
   0   166    0.148722D-01    0.997342D+00   -0.288473D+01    0.813343D-02
   0   167    0.146742D-01    0.997684D+00    0.347634D+01    0.673731D-02
   0   168    0.143729D-01    0.997552D+00    0.594267D+01    0.719119D-02
   0   169    0.146458D-01    0.997243D+00    0.127742D+01    0.799615D-02
   0   170    0.146530D-01    0.998165D+00    0.924913D+01    0.523540D-02
   0   171    0.146197D-01    0.997160D+00   -0.348997D+01    0.760304D-02
   0   172    0.149057D-01    0.997561D+00   -0.119336D+01    0.782907D-02
   0   173    0.150854D-01    0.997125D+00   -0.377575D+01    0.889949D-02
   0   174    0.146751D-01    0.997208D+00    0.280958D+01    0.770673D-02
   0   175    0.148929D-01    0.997540D+00   -0.388694D+00    0.735686D-02
   0   176    0.149007D-01    0.997490D+00    0.134366D+01    0.787035D-02
   0   177    0.144371D-01    0.997240D+00    0.684359D+01    0.858968D-02
   0   178    0.146465D-01    0.997776D+00    0.349524D-01    0.647253D-02
   0   179    0.145102D-01    0.997192D+00   -0.398039D+01    0.822631D-02
   0   180    0.146572D-01    0.996250D+00   -0.310696D+01    0.101912D-01
   0   181    0.145119D-01    0.997325D+00    0.360827D+01    0.737148D-02
   0   182    0.146672D-01    0.998043D+00   -0.559058D+01    0.492217D-02
   0   183    0.142452D-01    0.997253D+00   -0.274524D+01    0.730564D-02
   0   184    0.143850D-01    0.996786D+00    0.602275D+01    0.970667D-02
   0   185    0.144060D-01    0.997252D+00    0.351804D+01    0.747045D-02
   0   186    0.147675D-01    0.997890D+00   -0.222129D+01    0.579155D-02
   0   187    0.144689D-01    0.997710D+00    0.606576D+01    0.691733D-02
   0   188    0.144340D-01    0.996782D+00   -0.568456D+00    0.865570D-02
   0   189    0.144485D-01    0.997339D+00   -0.254850D+01    0.710497D-02
   0   190    0.141543D-01    0.999204D+00   -0.942409D+00    0.226436D-02
   0   191    0.144669D-01    0.998653D+00   -0.478923D+01    0.419711D-02
   0   192    0.143569D-01    0.997747D+00    0.330745D+01    0.706928D-02
   0   193    0.144123D-01    0.997282D+00    0.552038D+01    0.727358D-02
   0   194    0.145192D-01    0.998508D+00    0.153488D+01    0.469350D-02
   0   195    0.142438D-01    0.999504D+00   -0.666602D+01    0.120626D-02
   0   196    0.142880D-01    0.999903D+00    0.256943D+00    0.400257D-03
   0   197    0.141272D-01    0.999962D+00    0.135699D+01   -0.507814D-03
   0   198    0.143029D-01    0.999289D+00    0.759779D+01    0.263186D-02
   0   199    0.140344D-01    0.999703D+00    0.761016D+01    0.826075D-03
   0   200    0.144552D-01    0.998969D+00   -0.383380D+01    0.349711D-02
   0   201    0.142136D-01    0.997331D+00    0.338744D+01    0.730288D-02
   0   202    0.138533D-01    0.998138D+00    0.473168D+01    0.519722D-02
   0   203    0.139651D-01    0.997309D+00   -0.801522D+01    0.731127D-02
   0   204    0.141979D-01    0.997851D+00    0.508777D+01    0.555933D-02
   0   205    0.144482D-01    0.998842D+00    0.466692D+01    0.257019D-02
   0   206    0.141253D-01    0.998585D+00    0.703725D+01    0.400122D-02
   0   207    0.142038D-01    0.998279D+00   -0.407051D+01    0.541783D-02
   0   208    0.143611D-01    0.997856D+00    0.678252D+01    0.561596D-02
   0   209    0.142789D-01    0.998503D+00   -0.733944D+01    0.455577D-02
   0   210    0.142713D-01    0.997930D+00   -0.341002D+01    0.577837D-02
   0   211    0.139690D-01    0.998395D+00    0.164726D-01    0.412917D-02
   0   212    0.140928D-01    0.998379D+00    0.416822D+01    0.439303D-02
   0   213    0.140974D-01    0.998483D+00    0.522375D+01    0.439229D-02
   0   214    0.139358D-01    0.999248D+00    0.906795D+01    0.216415D-02
   0   215    0.142072D-01    0.998428D+00    0.526959D+01    0.463823D-02
   0   216    0.139004D-01    0.997961D+00   -0.626829D+01    0.598732D-02
   0   217    0.137627D-01    0.998078D+00   -0.204162D+01    0.547146D-02
   0   218    0.136021D-01    0.998520D+00   -0.537042D+01    0.396582D-02
   0   219    0.139595D-01    0.998311D+00    0.224498D+01    0.459184D-02
   0   220    0.136843D-01    0.998385D+00   -0.153036D+01    0.453528D-02
   0   221    0.134620D-01    0.998910D+00    0.821335D+01    0.263236D-02
   0   222    0.138174D-01    0.999767D+00    0.374080D+01    0.845928D-03
   0   223    0.139938D-01    0.998914D+00    0.788193D+01    0.360946D-02
   0   224    0.140437D-01    0.998097D+00    0.590732D+01    0.540765D-02
   0   225    0.139251D-01    0.998358D+00   -0.327386D+01    0.511354D-02
   0   226    0.140150D-01    0.998927D+00    0.433838D+01    0.247533D-02
   0   227    0.136311D-01    0.999592D+00    0.526693D+01    0.568564D-03
   0   228    0.142766D-01    0.999144D+00    0.574988D+01    0.225840D-02
   0   229    0.139944D-01    0.998243D+00   -0.436835D+01    0.496748D-02
   0   230    0.135054D-01    0.998772D+00   -0.286985D+01    0.395475D-02
   0   231    0.135749D-01    0.999186D+00    0.818411D+01    0.198612D-02
   0   232    0.143046D-01    0.998529D+00   -0.272429D+01    0.420136D-02
   0   233    0.141006D-01    0.998455D+00   -0.423018D+01    0.497952D-02
   0   234    0.142297D-01    0.998633D+00    0.566701D+01    0.439574D-02
   0   235    0.142848D-01    0.998046D+00    0.655682D+01    0.516530D-02
   0   236    0.142825D-01    0.998448D+00   -0.307753D+01    0.502581D-02
   0   237    0.146906D-01    0.999245D+00   -0.591278D+01    0.241866D-02
   0   238    0.146067D-01    0.997083D+00   -0.602777D+01    0.878587D-02
   0   239    0.143343D-01    0.996683D+00   -0.632215D+01    0.991742D-02
   0   240    0.147722D-01    0.996189D+00   -0.807832D+01    0.105518D-01
   0   241    0.148674D-01    0.996853D+00    0.135032D+01    0.846217D-02
   0   242    0.153351D-01    0.997493D+00    0.601767D+01    0.676736D-02
   0   243    0.149923D-01    0.996569D+00    0.843904D+01    0.927382D-02
   0   244    0.153568D-01    0.995616D+00    0.590240D+00    0.129853D-01
   0   245    0.157880D-01    0.995375D+00   -0.400435D+01    0.134080D-01
   0   246    0.158274D-01    0.996341D+00    0.311634D+00    0.106384D-01
   0   247    0.156700D-01    0.995684D+00    0.122074D+01    0.127430D-01
   0   248    0.159798D-01    0.995329D+00    0.522976D+00    0.135892D-01
   0   249    0.166645D-01    0.993571D+00   -0.173168D+01    0.191208D-01
   0   250    0.177263D-01    0.990640D+00   -0.214357D+01    0.270696D-01
   0   251    0.187989D-01    0.986673D+00   -0.263066D+01    0.379890D-01
   0   252    0.202671D-01    0.982781D+00   -0.820682D+01    0.496417D-01
   0   253    0.224377D-01    0.971602D+00   -0.719648D+01    0.799048D-01
   0   254    0.257788D-01    0.955961D+00   -0.978733D+01    0.119528D+00
   0   255    0.278073D-01    0.929536D+00   -0.856563D+00    0.175839D+00
   0   256    0.278223D-01    0.887815D+00    0.151408D+02    0.241769D+00
   0   257    0.222095D-01    0.825173D+00   -0.552254D+01    0.301440D+00
   0   258    0.139280D-01    0.738541D+00    0.342297D+01    0.345482D+00
   0   259    0.701412D-02    0.634844D+00    0.691647D+01    0.373522D+00
   0   260    0.304396D-02    0.524867D+00    0.960880D+00    0.390638D+00
   0   261    0.126509D-02    0.419440D+00    0.122004D+00    0.401175D+00
   0   262    0.482027D-03    0.325474D+00    0.531043D-01    0.407863D+00
   0   263    0.169077D-03    0.246283D+00    0.805180D-01    0.412230D+00
   0   264    0.572121D-04    0.182313D+00    0.651709D-01    0.415150D+00
   0   265    0.188865D-04    0.132398D+00    0.200856D-01    0.417134D+00
   0   266    0.604176D-05    0.945385D-01    0.169410D-02    0.418494D+00
   0   267    0.191567D-05    0.665098D-01    0.832972D-03    0.419431D+00
   0   268    0.610651D-06    0.461833D-01    0.601783D-03    0.420077D+00
   0   269    0.188260D-06    0.317028D-01    0.838724D-04    0.420521D+00
   0   270    0.548420D-07    0.215444D-01    0.372567D-04    0.420824D+00
   0   271    0.158153D-07    0.145124D-01    0.526760D-05    0.421030D+00
   0   272    0.470741D-08    0.970051D-02    0.502495D-05    0.421170D+00
   0   273    0.135524D-08    0.644056D-02    0.175812D-05    0.421264D+00
   0   274    0.392817D-09    0.425107D-02    0.192473D-06    0.421326D+00
   0   275    0.121670D-09    0.279154D-02    0.113852D-06    0.421368D+00
   0   276    0.369636D-10    0.182491D-02    0.388308D-07    0.421395D+00
   0   277    0.115647D-10    0.118834D-02    0.317409D-08    0.421413D+00
   0   278    0.337851D-11    0.771180D-03    0.294549D-08    0.421425D+00
   0   279    0.993499D-12    0.498965D-03    0.109638D-08    0.421433D+00
   0   280    0.304552D-12    0.321992D-03    0.378165D-09    0.421438D+00
   0   281    0.921923D-13    0.207312D-03    0.806346D-10    0.421441D+00
   0   282    0.258319D-13    0.133207D-03    0.279671D-10    0.421443D+00
   0   283    0.723322D-14    0.854403D-04    0.958375D-11    0.421445D+00
   0   284    0.201724D-14    0.547171D-04    0.121608D-11    0.421445D+00
   0   285    0.559441D-15    0.349937D-04    0.141995D-12    0.421446D+00
   0   286    0.149852D-15    0.223529D-04    0.135455D-12    0.421446D+00
   0   287    0.402677D-16    0.142632D-04    0.356358D-13    0.421447D+00
   0   288    0.110174D-16    0.909273D-05    0.767364D-14    0.421447D+00
   0   289    0.289864D-17    0.579179D-05    0.881212D-15    0.421447D+00
   0   290    0.782715D-18    0.368650D-05    0.779030D-15    0.421447D+00
   0   291    0.208243D-18    0.234496D-05    0.195753D-15    0.421447D+00
   0   292    0.545004D-19    0.149076D-05    0.247390D-16    0.421447D+00
   0   293    0.137764D-19    0.947240D-06    0.115524D-16    0.421447D+00
   0   294    0.365198D-20    0.601615D-06    0.467592D-17    0.421447D+00
   0   295    0.924960D-21    0.381949D-06    0.545455D-18    0.421447D+00
   0   296    0.231286D-21    0.242404D-06    0.333815D-18    0.421447D+00
   0   297    0.590852D-22    0.153794D-06    0.316724D-19    0.421447D+00
   0   298    0.150158D-22    0.975485D-07    0.536849D-20    0.421447D+00
   0   299    0.389339D-23    0.618583D-07    0.328171D-20    0.421447D+00
   0   300    0.990607D-24    0.392179D-07    0.126220D-20    0.421447D+00
   0   301    0.241343D-24    0.248594D-07    0.257591D-21    0.421447D+00
   0   302    0.596468D-25    0.157553D-07    0.589194D-22    0.421447D+00
   0   303    0.147721D-25    0.998399D-08    0.116915D-22    0.421447D+00
   0   304    0.361497D-26    0.632601D-08    0.129160D-23    0.421447D+00
   0   305    0.898275D-27    0.400785D-08    0.376730D-24    0.421447D+00
   0   306    0.225282D-27    0.253896D-08    0.800310D-25    0.421447D+00
   0   307    0.538633D-28    0.160831D-08    0.271481D-25    0.421447D+00
   0   308    0.131161D-28    0.101873D-08    0.897508D-26    0.421447D+00
   0   309    0.327420D-29    0.645248D-09    0.349153D-26    0.421447D+00
   0   310    0.808006D-30    0.408675D-09    0.297909D-27    0.421447D+00
   0   311    0.199154D-30    0.258831D-09    0.188779D-27    0.421447D+00
   0   312    0.495875D-31    0.163925D-09    0.603463D-28    0.421447D+00
   0   313    0.118131D-31    0.103817D-09    0.673016D-29    0.421447D+00
   0   314    0.290987D-32    0.657491D-10    0.209383D-29    0.421447D+00
   0   315    0.693639D-33    0.416397D-10    0.432283D-30    0.421447D+00
   0   316    0.169775D-33    0.263710D-10    0.591093D-31    0.421447D+00
   0   317    0.412985D-34    0.167011D-10    0.471552D-31    0.421447D+00
   0   318    0.100897D-34    0.105772D-10    0.106243D-31    0.421447D+00
   0   319    0.246172D-35    0.669879D-11    0.760045D-33    0.421447D+00
   0   320    0.592810D-36    0.424257D-11    0.677113D-33    0.421447D+00
   0   321    0.141248D-36    0.268699D-11    0.171098D-33    0.421447D+00
   0   322    0.332015D-37    0.170181D-11    0.229167D-34    0.421447D+00
   0   323    0.798331D-38    0.107785D-11    0.942829D-35    0.421447D+00
   0   324    0.196018D-38    0.682679D-12    0.272906D-35    0.421447D+00
   0   325    0.458454D-39    0.432395D-12    0.647553D-36    0.421447D+00
   0   326    0.109420D-39    0.273874D-12    0.481685D-37    0.421447D+00
   0   327    0.263082D-40    0.173471D-12    0.745527D-38    0.421447D+00
   0   328    0.616504D-41    0.109878D-12    0.682003D-38    0.421447D+00
   0   329    0.150956D-41    0.695983D-13    0.190089D-38    0.421447D+00
   0   330    0.366366D-42    0.440853D-13    0.502144D-39    0.421447D+00
   0   331    0.872283D-43    0.279250D-13    0.389059D-40    0.421447D+00
   0   332    0.206127D-43    0.176888D-13    0.265530D-40    0.421447D+00
   0   333    0.486329D-44    0.112049D-13    0.483562D-41    0.421447D+00
   0   334    0.117375D-44    0.709779D-14    0.936270D-42    0.421447D+00
   0   335    0.273834D-45    0.449615D-14    0.195707D-42    0.421447D+00
   0   336    0.644413D-46    0.284814D-14    0.684723D-43    0.421447D+00
   0   337    0.152218D-46    0.180420D-14    0.162721D-43    0.421447D+00
   0   338    0.372268D-47    0.114291D-14    0.365528D-44    0.421447D+00
   0   339    0.872185D-48    0.724001D-15    0.773054D-45    0.421447D+00
   0   340    0.208533D-48    0.458635D-15    0.142871D-45    0.421447D+00
   0   341    0.491499D-49    0.290534D-15    0.346231D-46    0.421447D+00
   0   342    0.120602D-49    0.184046D-15    0.380694D-47    0.421447D+00
   0   343    0.284547D-50    0.116588D-15    0.175544D-47    0.421447D+00
   0   344    0.670168D-51    0.738555D-16    0.855261D-48    0.421447D+00
   0   345    0.162689D-51    0.467853D-16    0.878779D-49    0.421447D+00
   0   346    0.374595D-52    0.296369D-16    0.400136D-49    0.421447D+00
   0   347    0.881218D-53    0.187739D-16    0.114058D-49    0.421447D+00
   0   348    0.206386D-53    0.118925D-16    0.310480D-50    0.421447D+00
   0   349    0.504313D-54    0.753339D-17    0.327726D-51    0.421447D+00
   0   350    0.118836D-54    0.477203D-17    0.536775D-52    0.421447D+00
   0   351    0.287029D-55    0.302281D-17    0.230107D-52    0.421447D+00
   0   352    0.658240D-56    0.191476D-17    0.963179D-53    0.421447D+00
   0   353    0.158900D-56    0.121287D-17    0.169332D-53    0.421447D+00
   0   354    0.377773D-57    0.768262D-18    0.447842D-54    0.421447D+00
   0   355    0.881185D-58    0.486630D-18    0.522740D-55    0.421447D+00
   0   356    0.208846D-58    0.308236D-18    0.260239D-55    0.421447D+00
   0   357    0.497293D-59    0.195237D-18    0.619788D-56    0.421447D+00
   0   358    0.120280D-59    0.123662D-18    0.289810D-57    0.421447D+00
   0   359    0.276438D-60    0.783253D-19    0.309269D-57    0.421447D+00
   0   360    0.664471D-61    0.496094D-19    0.507316D-58    0.421447D+00
   0   361    0.158123D-61    0.314210D-19    0.115622D-58    0.421447D+00
   0   362    0.371947D-62    0.199007D-19    0.324798D-59    0.421447D+00
   0   363    0.890368D-63    0.126041D-19    0.573381D-60    0.421447D+00
   0   364    0.214792D-63    0.798272D-20    0.184855D-60    0.421447D+00
   0   365    0.506634D-64    0.505572D-20    0.502587D-61    0.421447D+00
   0   366    0.119884D-64    0.320191D-20    0.113635D-61    0.421447D+00
   0   367    0.278635D-65    0.202782D-20    0.235000D-62    0.421447D+00
   0   368    0.662089D-66    0.128424D-20    0.271870D-63    0.421447D+00
   0   369    0.157693D-66    0.813308D-21    0.178264D-63    0.421447D+00
   0   370    0.364889D-67    0.515062D-21    0.180446D-64    0.421447D+00
   0   371    0.857423D-68    0.326181D-21    0.828718D-65    0.421447D+00
   0   372    0.206242D-68    0.206563D-21    0.590514D-66    0.421447D+00
   0   373    0.487445D-69    0.130810D-21    0.694781D-66    0.421447D+00
   0   374    0.112177D-69    0.828374D-22    0.145865D-66    0.421447D+00
   0   375    0.262392D-70    0.524574D-22    0.228895D-67    0.421447D+00
   0   376    0.620308D-71    0.332187D-22    0.864934D-68    0.421447D+00
   0   377    0.147478D-71    0.210356D-22    0.976659D-69    0.421447D+00
   0   378    0.348101D-72    0.133206D-22    0.322513D-69    0.421447D+00
   0   379    0.795579D-73    0.843503D-23    0.732919D-70    0.421447D+00
   0   380    0.188666D-73    0.534130D-23    0.208855D-70    0.421447D+00
   0   381    0.445013D-74    0.338224D-23    0.152964D-71    0.421447D+00
   0   382    0.106070D-74    0.214170D-23    0.410086D-72    0.421447D+00
   0   383    0.248976D-75    0.135615D-23    0.146067D-72    0.421447D+00
   0   384    0.584977D-76    0.858731D-24    0.330032D-73    0.421447D+00
   0   385    0.140325D-76    0.543754D-24    0.564063D-74    0.421447D+00
   0   386    0.330874D-77    0.344306D-24    0.163240D-74    0.421447D+00
   0   387    0.774159D-78    0.218013D-24    0.335291D-75    0.421447D+00
   0   388    0.179956D-78    0.138044D-24    0.681950D-76    0.421447D+00
   0   389    0.428480D-79    0.874058D-25    0.246085D-76    0.421447D+00
   0   390    0.100903D-79    0.553409D-25    0.745140D-77    0.421447D+00
   0   391    0.243503D-80    0.350354D-25    0.322163D-77    0.421447D+00
   0   392    0.579342D-81    0.221750D-25    0.809870D-78    0.421447D+00
   0   393    0.138847D-81    0.140268D-25    0.128060D-78    0.421447D+00
   0   394    0.328426D-82    0.885930D-26    0.126202D-79    0.421447D+00
   0   395    0.764215D-83    0.557454D-26    0.378866D-80    0.421447D+00
   0   396    0.179977D-83    0.347445D-26    0.254233D-80    0.421447D+00
   0   397    0.429631D-84    0.211275D-26    0.307799D-81    0.421447D+00