variables =  "IG"  "JG"  "PHI"  "Temp."  "Latent_heat"  "mm"
ZONE  I=  401  J=  101
   0     0    0.100000D+01    0.701654D+00    0.000000D+00    0.357354D+00
   0     1    0.100000D+01    0.701654D+00    0.000000D+00    0.357354D+00
   0     2    0.100000D+01    0.703241D+00    0.000000D+00    0.356892D+00
   0     3    0.100000D+01    0.706397D+00    0.000000D+00    0.355962D+00
   0     4    0.100000D+01    0.711083D+00    0.000000D+00    0.354546D+00
   0     5    0.100000D+01    0.717246D+00    0.000000D+00    0.352620D+00
   0     6    0.100000D+01    0.724813D+00    0.000000D+00    0.350151D+00
   0     7    0.100000D+01    0.733699D+00    0.000000D+00    0.347095D+00
   0     8    0.100000D+01    0.743805D+00    0.000000D+00    0.343394D+00
   0     9    0.100000D+01    0.755021D+00    0.000000D+00    0.338978D+00
   0    10    0.100000D+01    0.767231D+00    0.000000D+00    0.333760D+00
   0    11    0.100000D+01    0.780313D+00    0.000000D+00    0.327630D+00
   0    12    0.100000D+01    0.794145D+00   -0.199840D-09    0.320455D+00
   0    13    0.100000D+01    0.808608D+00    0.322409D-08    0.312070D+00
   0    14    0.100000D+01    0.823588D+00   -0.174261D-07    0.302267D+00
   0    15    0.100000D+01    0.838983D+00    0.808420D-07    0.290789D+00
   0    16    0.100000D+01    0.854706D+00    0.109230D-05    0.277310D+00
   0    17    0.100000D+01    0.870692D+00   -0.174430D-05    0.261417D+00
   0    18    0.100000D+01    0.886901D+00   -0.398354D-04    0.242585D+00
   0    19    0.999998D+00    0.903327D+00   -0.519283D-03    0.220150D+00
   0    20    0.999987D+00    0.920007D+00   -0.343575D-02    0.193278D+00
   0    21    0.999903D+00    0.937036D+00    0.466251D-01    0.160966D+00
   0    22    0.999281D+00    0.954576D+00    0.438528D+00    0.122125D+00
   0    23    0.994950D+00    0.972882D+00    0.257954D+01    0.757715D-01
   0    24    0.965380D+00    0.991325D+00    0.125923D+02    0.246013D-01
   0    25    0.797964D+00    0.101168D+01    0.829233D+02   -0.313231D-01
   0    26    0.241915D+00    0.102073D+01   -0.324800D+02   -0.591649D-01
   0    27    0.562954D-01    0.102356D+01    0.340574D+02   -0.669067D-01
   0    28    0.180017D-01    0.101962D+01   -0.894316D+01   -0.556281D-01
   0    29    0.958166D-02    0.101580D+01   -0.387235D+01   -0.453180D-01
   0    30    0.805378D-02    0.101350D+01   -0.256938D+01   -0.380923D-01
   0    31    0.809057D-02    0.101196D+01    0.413346D+01   -0.339354D-01
   0    32    0.840470D-02    0.101105D+01   -0.159824D+01   -0.317944D-01
   0    33    0.863993D-02    0.101072D+01   -0.309177D+01   -0.301383D-01
   0    34    0.918451D-02    0.100893D+01    0.221950D+01   -0.257228D-01
   0    35    0.991225D-02    0.100786D+01    0.553867D+01   -0.225954D-01
   0    36    0.102579D-01    0.100611D+01   -0.137304D+01   -0.179797D-01
   0    37    0.106704D-01    0.100548D+01    0.595239D+01   -0.153737D-01
   0    38    0.116988D-01    0.100350D+01   -0.331653D+01   -0.104906D-01
   0    39    0.119533D-01    0.100267D+01    0.550682D+01   -0.742784D-02
   0    40    0.123209D-01    0.100120D+01   -0.179039D+01   -0.360841D-02
   0    41    0.124491D-01    0.100076D+01   -0.433175D+01   -0.202181D-02
   0    42    0.129678D-01    0.100006D+01    0.189648D+01    0.138488D-03
   0    43    0.133836D-01    0.998519D+00   -0.717572D+01    0.461545D-02
   0    44    0.136575D-01    0.998755D+00   -0.164803D+01    0.400255D-02
   0    45    0.142173D-01    0.997269D+00    0.123448D+01    0.723408D-02
   0    46    0.144142D-01    0.996911D+00    0.589222D+01    0.916502D-02
   0    47    0.150381D-01    0.996388D+00   -0.632855D+00    0.102569D-01
   0    48    0.153647D-01    0.994634D+00    0.309079D+01    0.154159D-01
   0    49    0.161546D-01    0.989684D+00   -0.163235D-01    0.299030D-01
   0    50    0.183312D-01    0.980580D+00    0.561326D+01    0.550372D-01
   0    51    0.212475D-01    0.967953D+00   -0.465991D+01    0.890280D-01
   0    52    0.253097D-01    0.950658D+00   -0.153991D+02    0.131855D+00
   0    53    0.283777D-01    0.923938D+00   -0.231275D+01    0.186548D+00
   0    54    0.278970D-01    0.880002D+00    0.524358D+01    0.251545D+00
   0    55    0.214784D-01    0.814080D+00    0.936962D+01    0.308847D+00
   0    56    0.134113D-01    0.725706D+00    0.996745D+00    0.350060D+00
   0    57    0.676870D-02    0.621179D+00    0.300242D+00    0.376156D+00
   0    58    0.295067D-02    0.511186D+00    0.727297D+00    0.392253D+00
   0    59    0.117754D-02    0.406493D+00    0.122798D+00    0.402221D+00
   0    60    0.430367D-03    0.313972D+00    0.170218D+00    0.408559D+00
   0    61    0.157102D-03    0.236515D+00    0.118167D+00    0.412707D+00
   0    62    0.518329D-04    0.174345D+00    0.536444D-01    0.415483D+00
   0    63    0.164080D-04    0.126103D+00    0.213254D-01    0.417368D+00
   0    64    0.520051D-05    0.897050D-01    0.357857D-02    0.418660D+00
   0    65    0.166144D-05    0.628857D-01    0.344373D-03    0.419549D+00
   0    66    0.505533D-06    0.435205D-01    0.187977D-03    0.420160D+00
   0    67    0.150728D-06    0.297800D-01    0.177704D-03    0.420578D+00
   0    68    0.446334D-07    0.201769D-01    0.221884D-04    0.420864D+00
   0    69    0.129011D-07    0.135528D-01    0.105192D-04    0.421058D+00
   0    70    0.373978D-08    0.903513D-02    0.207837D-05    0.421189D+00
   0    71    0.107983D-08    0.598415D-02    0.132598D-05    0.421277D+00
   0    72    0.320674D-09    0.394106D-02    0.120866D-06    0.421335D+00
   0    73    0.978945D-10    0.258286D-02    0.926583D-07    0.421374D+00
   0    74    0.298887D-10    0.168560D-02    0.128164D-07    0.421399D+00
   0    75    0.908290D-11    0.109604D-02    0.100715D-07    0.421416D+00
   0    76    0.277889D-11    0.710452D-03    0.564909D-09    0.421427D+00
   0    77    0.821872D-12    0.459264D-03    0.796577D-09    0.421434D+00
   0    78    0.247118D-12    0.296188D-03    0.470344D-10    0.421439D+00
   0    79    0.707066D-13    0.190626D-03    0.314404D-10    0.421442D+00
   0    80    0.203790D-13    0.122465D-03    0.596455D-11    0.421444D+00
   0    81    0.587381D-14    0.785511D-04    0.124111D-11    0.421445D+00
   0    82    0.160628D-14    0.503115D-04    0.875927D-12    0.421446D+00
   0    83    0.431810D-15    0.321819D-04    0.422104D-12    0.421446D+00
   0    84    0.116314D-15    0.205601D-04    0.958289D-13    0.421446D+00
   0    85    0.316823D-16    0.131200D-04    0.287315D-13    0.421447D+00
   0    86    0.858397D-17    0.836271D-05    0.461918D-14    0.421447D+00
   0    87    0.219166D-17    0.532441D-05    0.200490D-14    0.421447D+00
   0    88    0.583350D-18    0.338610D-05    0.221635D-15    0.421447D+00
   0    89    0.152720D-18    0.215089D-05    0.449262D-16    0.421447D+00
   0    90    0.396355D-19    0.136461D-05    0.426307D-16    0.421447D+00
   0    91    0.103303D-19    0.864646D-06    0.741145D-17    0.421447D+00
   0    92    0.274279D-20    0.547119D-06    0.295634D-17    0.421447D+00
   0    93    0.681413D-21    0.345703D-06    0.725872D-18    0.421447D+00
   0    94    0.174187D-21    0.218104D-06    0.207803D-18    0.421447D+00
   0    95    0.426841D-22    0.137381D-06    0.517298D-19    0.421447D+00
   0    96    0.109158D-22    0.863866D-07    0.118377D-19    0.421447D+00
   0    97    0.274604D-23    0.542230D-07    0.225751D-20    0.421447D+00
   0    98    0.704367D-24    0.339701D-07    0.164915D-21    0.421447D+00
   0    99    0.171194D-24    0.212394D-07    0.216428D-21    0.421447D+00
   0   100    0.429034D-25    0.132519D-07    0.200460D-22    0.421447D+00
   0   101    0.106353D-25    0.825024D-08    0.419910D-23    0.421447D+00
   0   102    0.266664D-26    0.512467D-08    0.108516D-23    0.421447D+00
   0   103    0.656674D-27    0.317569D-08    0.507896D-24    0.421447D+00
   0   104    0.164707D-27    0.196312D-08    0.112685D-24    0.421447D+00
   0   105    0.410800D-28    0.121048D-08    0.500452D-25    0.421447D+00
   0   106    0.986508D-29    0.744454D-09    0.961453D-26    0.421447D+00
   0   107    0.245955D-29    0.456619D-09    0.272518D-26    0.421447D+00
   0   108    0.602819D-30    0.279304D-09    0.685656D-27    0.421447D+00
   0   109    0.144634D-30    0.170365D-09    0.160973D-27    0.421447D+00
   0   110    0.365581D-31    0.103618D-09    0.127221D-28    0.421447D+00
   0   111    0.876644D-32    0.628370D-10    0.680639D-29    0.421447D+00
   0   112    0.215155D-32    0.379928D-10    0.243264D-29    0.421447D+00
   0   113    0.518575D-33    0.229018D-10    0.389407D-30    0.421447D+00
   0   114    0.125282D-33    0.137627D-10    0.105995D-30    0.421447D+00
   0   115    0.312160D-34    0.824476D-11    0.183808D-31    0.421447D+00
   0   116    0.750491D-35    0.492357D-11    0.662286D-32    0.421447D+00
   0   117    0.177352D-35    0.293084D-11    0.196532D-32    0.421447D+00
   0   118    0.427153D-36    0.173901D-11    0.509352D-33    0.421447D+00
   0   119    0.104070D-36    0.102847D-11    0.113144D-33    0.421447D+00
   0   120    0.256351D-37    0.606248D-12    0.348423D-34    0.421447D+00
   0   121    0.622142D-38    0.356178D-12    0.470477D-35    0.421447D+00
   0   122    0.151729D-38    0.208560D-12    0.128067D-35    0.421447D+00
   0   123    0.367635D-39    0.121712D-12    0.421595D-36    0.421447D+00
   0   124    0.857596D-40    0.707881D-13    0.572812D-37    0.421447D+00
   0   125    0.208392D-40    0.410307D-13    0.677812D-38    0.421447D+00
   0   126    0.512375D-41    0.237011D-13    0.689838D-38    0.421447D+00
   0   127    0.124588D-41    0.136438D-13    0.509930D-39    0.421447D+00
   0   128    0.293547D-42    0.782705D-14    0.142743D-39    0.421447D+00
   0   129    0.720830D-43    0.447461D-14    0.635203D-40    0.421447D+00
   0   130    0.168840D-43    0.254918D-14    0.170969D-40    0.421447D+00
   0   131    0.414623D-44    0.144720D-14    0.475384D-41    0.421447D+00
   0   132    0.996999D-45    0.818725D-15    0.995989D-42    0.421447D+00
   0   133    0.236342D-45    0.461553D-15    0.314511D-42    0.421447D+00
   0   134    0.565403D-46    0.259285D-15    0.219151D-43    0.421447D+00
   0   135    0.131597D-46    0.145145D-15    0.804466D-44    0.421447D+00
   0   136    0.319409D-47    0.809644D-16    0.186518D-44    0.421447D+00
   0   137    0.751212D-48    0.450039D-16    0.729746D-45    0.421447D+00
   0   138    0.177686D-48    0.249269D-16    0.254779D-45    0.421447D+00
   0   139    0.405371D-49    0.137577D-16    0.310168D-46    0.421447D+00
   0   140    0.958481D-50    0.756631D-17    0.116922D-46    0.421447D+00
   0   141    0.224822D-50    0.414648D-17    0.102910D-47    0.421447D+00
   0   142    0.552795D-51    0.226429D-17    0.604099D-48    0.421447D+00
   0   143    0.126993D-51    0.123209D-17    0.936877D-49    0.421447D+00
   0   144    0.287798D-52    0.668045D-18    0.243301D-49    0.421447D+00
   0   145    0.705936D-53    0.360932D-18    0.768577D-50    0.421447D+00
   0   146    0.168071D-53    0.194312D-18    0.566962D-51    0.421447D+00
   0   147    0.400846D-54    0.104239D-18    0.389457D-51    0.421447D+00
   0   148    0.931703D-55    0.557203D-19    0.707609D-52    0.421447D+00
   0   149    0.217023D-55    0.296793D-19    0.206242D-52    0.421447D+00
   0   150    0.498474D-56    0.157525D-19    0.689270D-53    0.421447D+00
   0   151    0.115685D-56    0.833107D-20    0.133614D-53    0.421447D+00
   0   152    0.269472D-57    0.439045D-20    0.262542D-54    0.421447D+00
   0   153    0.618262D-58    0.230555D-20    0.627512D-55    0.421447D+00
   0   154    0.140408D-58    0.120642D-20    0.170292D-55    0.421447D+00
   0   155    0.326466D-59    0.629045D-21    0.139623D-56    0.421447D+00
   0   156    0.734508D-60    0.326833D-21    0.367045D-57    0.421447D+00
   0   157    0.167436D-60    0.169211D-21    0.158642D-57    0.421447D+00
   0   158    0.386868D-61    0.872965D-22    0.333674D-58    0.421447D+00
   0   159    0.895969D-62    0.448774D-22    0.124974D-58    0.421447D+00
   0   160    0.200407D-62    0.229891D-22    0.272145D-59    0.421447D+00
   0   161    0.441456D-63    0.117350D-22    0.276437D-60    0.421447D+00
   0   162    0.986384D-64    0.596916D-23    0.872470D-61    0.421447D+00
   0   163    0.216103D-64    0.302560D-23    0.288161D-61    0.421447D+00
   0   164    0.489145D-65    0.152820D-23    0.752456D-62    0.421447D+00
   0   165    0.112165D-65    0.769170D-24    0.117017D-62    0.421447D+00
   0   166    0.244179D-66    0.385778D-24    0.224562D-63    0.421447D+00
   0   167    0.554049D-67    0.192809D-24    0.570908D-64    0.421447D+00
   0   168    0.122741D-67    0.960276D-25    0.734892D-65    0.421447D+00
   0   169    0.270132D-68    0.476588D-25    0.236376D-65    0.421447D+00
   0   170    0.584566D-69    0.235706D-25    0.930685D-66    0.421447D+00
   0   171    0.130291D-69    0.116167D-25    0.108795D-66    0.421447D+00
   0   172    0.280791D-70    0.570527D-26    0.264042D-67    0.421447D+00
   0   173    0.608756D-71    0.279227D-26    0.944007D-68    0.421447D+00
   0   174    0.129800D-71    0.136184D-26    0.210900D-68    0.421447D+00
   0   175    0.279254D-72    0.661893D-27    0.314210D-69    0.421447D+00
   0   176    0.603608D-73    0.320583D-27    0.670081D-70    0.421447D+00
   0   177    0.127235D-73    0.154734D-27    0.171384D-70    0.421447D+00
   0   178    0.272378D-74    0.744269D-28    0.215913D-71    0.421447D+00
   0   179    0.572020D-75    0.356756D-28    0.838709D-72    0.421447D+00
   0   180    0.123975D-75    0.170417D-28    0.192809D-72    0.421447D+00
   0   181    0.259378D-76    0.811257D-29    0.189589D-73    0.421447D+00
   0   182    0.538075D-77    0.384865D-29    0.531423D-74    0.421447D+00
   0   183    0.113300D-77    0.181955D-29    0.105739D-74    0.421447D+00
   0   184    0.229748D-78    0.857295D-30    0.390581D-75    0.421447D+00
   0   185    0.470694D-79    0.402539D-30    0.561610D-76    0.421447D+00
   0   186    0.970512D-80    0.188364D-30    0.111325D-76    0.421447D+00
   0   187    0.204132D-80    0.878424D-31    0.240201D-77    0.421447D+00
   0   188    0.417612D-81    0.408252D-31    0.675754D-78    0.421447D+00
   0   189    0.838330D-82    0.189092D-31    0.809806D-79    0.421447D+00
   0   190    0.169096D-82    0.872851D-32    0.224474D-79    0.421447D+00
   0   191    0.347057D-83    0.401543D-32    0.496708D-80    0.421447D+00
   0   192    0.706310D-84    0.184099D-32    0.804451D-81    0.421447D+00
   0   193    0.139543D-84    0.841200D-33    0.106964D-81    0.421447D+00
   0   194    0.281468D-85    0.383071D-33    0.256788D-82    0.421447D+00
   0   195    0.566666D-86    0.173858D-33    0.886176D-83    0.421447D+00
   0   196    0.112733D-86    0.786401D-34    0.100101D-83    0.421447D+00
   0   197    0.222386D-87    0.354514D-34    0.197630D-84    0.421447D+00
   0   198    0.431583D-88    0.159281D-34    0.791878D-85    0.421447D+00
   0   199    0.862100D-89    0.713243D-35    0.641941D-86    0.421447D+00
   0   200    0.167680D-89    0.318315D-35    0.253747D-86    0.421447D+00
   0   201    0.322314D-90    0.141588D-35    0.396657D-87    0.421447D+00
   0   202    0.619384D-91    0.627689D-36    0.107349D-87    0.421447D+00
   0   203    0.115868D-91    0.277342D-36    0.138093D-88    0.421447D+00
   0   204    0.228074D-92    0.122136D-36    0.339866D-89    0.421447D+00
   0   205    0.425514D-93    0.536079D-37    0.748082D-90    0.421447D+00
   0   206    0.806795D-94    0.234517D-37    0.603149D-91    0.421447D+00
   0   207    0.154318D-94    0.102254D-37    0.256446D-91    0.421447D+00
   0   208    0.287185D-95    0.444381D-38    0.561434D-92    0.421447D+00
   0   209    0.536566D-96    0.192485D-38    0.107613D-92    0.421447D+00
   0   210    0.100319D-96    0.831013D-39    0.970961D-94    0.421447D+00
   0   211    0.189085D-97    0.357595D-39    0.301083D-94    0.421447D+00
   0   212    0.346906D-98    0.153373D-39    0.670224D-95    0.421447D+00
   0   213    0.643883D-99    0.655672D-40    0.935254D-96    0.421447D+00
   0   214    0.122692D-99    0.279385D-40    0.181500D-96    0.421447D+00
   0   215    0.224759-100    0.118659D-40    0.394701D-97    0.421447D+00
   0   216    0.413240-101    0.502324D-41    0.598460D-98    0.421447D+00
   0   217    0.767540-102    0.211960D-41    0.137632D-98    0.421447D+00
   0   218    0.137371-102    0.891488D-42    0.207923D-99    0.421447D+00
   0   219    0.247154-103    0.373739D-42    0.380041-100    0.421447D+00
   0   220    0.451075-104    0.156176D-42    0.523052-101    0.421447D+00
   0   221    0.808254-105    0.650519D-43    0.124225-101    0.421447D+00
   0   222    0.144881-105    0.270088D-43    0.174272-102    0.421447D+00
   0   223    0.259078-106    0.111777D-43    0.505084-103    0.421447D+00
   0   224    0.453725-107    0.461108D-44    0.968377-104    0.421447D+00
   0   225    0.784229-108    0.189610D-44    0.112079-104    0.421447D+00
   0   226    0.136203-108    0.777196D-45    0.225128-105    0.421447D+00
   0   227    0.242339-109    0.317549D-45    0.318399-106    0.421447D+00
   0   228    0.419331-110    0.129332D-45    0.538509-107    0.421447D+00
   0   229    0.729005-111    0.525072D-46    0.104613-107    0.421447D+00
   0   230    0.124614-111    0.212496D-46    0.196362-108    0.421447D+00
   0   231    0.207988-112    0.857246D-47    0.267369-109    0.421447D+00
   0   232    0.362304-113    0.344735D-47    0.489748-110    0.421447D+00
   0   233    0.624436-114    0.138195D-47    0.106778-110    0.421447D+00
   0   234    0.106673-114    0.552239D-48    0.148153-111    0.421447D+00
   0   235    0.177787-115    0.219986D-48    0.328366-112    0.421447D+00
   0   236    0.296681-116    0.873572D-49    0.575344-113    0.421447D+00
   0   237    0.497337-117    0.345811D-49    0.764066-114    0.421447D+00
   0   238    0.835044-118    0.136464D-49    0.136616-114    0.421447D+00
   0   239    0.138943-118    0.536835D-50    0.202978-115    0.421447D+00
   0   240    0.230193-119    0.210527D-50    0.412430-116    0.421447D+00
   0   241    0.381904-120    0.823041D-51    0.788762-117    0.421447D+00
   0   242    0.630126-121    0.320764D-51    0.930458-118    0.421447D+00
   0   243    0.990938-122    0.124624D-51    0.173109-118    0.421447D+00
   0   244    0.161836-122    0.482694D-52    0.239364-119    0.421447D+00
   0   245    0.268583-123    0.186380D-52    0.465153-120    0.421447D+00
   0   246    0.443952-124    0.717441D-53    0.555496-121    0.421447D+00
   0   247    0.714336-125    0.275319D-53    0.135045-121    0.421447D+00
   0   248    0.112366-125    0.105329D-53    0.226336-122    0.421447D+00
   0   249    0.180834-126    0.401727D-54    0.323508-123    0.421447D+00
   0   250    0.289805-127    0.152750D-54    0.519844-124    0.421447D+00
   0   251    0.454763-128    0.579034D-55    0.743415-125    0.421447D+00
   0   252    0.718441-129    0.218827D-55    0.119000-125    0.421447D+00
   0   253    0.115658-129    0.824472D-56    0.178127-126    0.421447D+00
   0   254    0.178090-130    0.309692D-56    0.240536-127    0.421447D+00
   0   255    0.276848-131    0.115975D-56    0.627946-128    0.421447D+00
   0   256    0.431970-132    0.432998D-57    0.884223-129    0.421447D+00
   0   257    0.664770-133    0.161173D-57    0.107497-129    0.421447D+00
   0   258    0.105350-133    0.598121D-58    0.132786-130    0.421447D+00
   0   259    0.163904-134    0.221298D-58    0.230058-131    0.421447D+00
   0   260    0.245419-135    0.816318D-59    0.609350-132    0.421447D+00
   0   261    0.376530-136    0.300219D-59    0.530511-133    0.421447D+00
   0   262    0.563897-137    0.110082D-59    0.837398-134    0.421447D+00
   0   263    0.859832-138    0.402436D-60    0.187720-134    0.421447D+00
   0   264    0.133159-138    0.146684D-60    0.241224-135    0.421447D+00
   0   265    0.204431-139    0.533055D-61    0.391759-136    0.421447D+00
   0   266    0.297039-140    0.193140D-61    0.469780-137    0.421447D+00
   0   267    0.439673-141    0.697723D-62    0.726316-138    0.421447D+00
   0   268    0.650533-142    0.251309D-62    0.116768-138    0.421447D+00
   0   269    0.967370-143    0.902503D-63    0.214811-139    0.421447D+00
   0   270    0.140261-143    0.323153D-63    0.352125-140    0.421447D+00
   0   271    0.205376-144    0.115369D-63    0.466521-141    0.421447D+00
   0   272    0.299974-145    0.410671D-64    0.485862-142    0.421447D+00
   0   273    0.440323-146    0.145755D-64    0.684025-143    0.421447D+00
   0   274    0.642383-147    0.515802D-65    0.116720-143    0.421447D+00
   0   275    0.954048-148    0.182001D-65    0.159231-144    0.421447D+00
   0   276    0.136600-148    0.640318D-66    0.322525-145    0.421447D+00
   0   277    0.196927-149    0.224623D-66    0.377249-146    0.421447D+00
   0   278    0.275681-150    0.785689D-67    0.532582-147    0.421447D+00
   0   279    0.401249-151    0.274023D-67    0.629745-148    0.421447D+00
   0   280    0.577329-152    0.952943D-68    0.148569-148    0.421447D+00
   0   281    0.814142-153    0.330439D-68    0.201669-149    0.421447D+00
   0   282    0.114761-153    0.114252D-68    0.258999-150    0.421447D+00
   0   283    0.160543-154    0.393900D-69    0.445124-151    0.421447D+00
   0   284    0.226247-155    0.135413D-69    0.497665-152    0.421447D+00
   0   285    0.314171-156    0.464183D-70    0.823568-153    0.421447D+00
   0   286    0.443020-157    0.158663D-70    0.117214-153    0.421447D+00
   0   287    0.608395-158    0.540780D-71    0.171127-154    0.421447D+00
   0   288    0.859341-159    0.183793D-71    0.201965-155    0.421447D+00
   0   289    0.119243-159    0.622873D-72    0.326458-156    0.421447D+00
   0   290    0.163409-160    0.210493D-72    0.354631-157    0.421447D+00
   0   291    0.224659-161    0.709323D-73    0.551345-158    0.421447D+00
   0   292    0.302965-162    0.238354D-73    0.760437-159    0.421447D+00
   0   293    0.417772-163    0.798680D-74    0.112109-159    0.421447D+00
   0   294    0.573073-164    0.266870D-74    0.122893-160    0.421447D+00
   0   295    0.759476-165    0.889211D-75    0.228919-161    0.421447D+00
   0   296    0.102635-165    0.295455D-75    0.195505-162    0.421447D+00
   0   297    0.137274-166    0.978947D-76    0.327642-163    0.421447D+00
   0   298    0.182043-167    0.323454D-76    0.448148-164    0.421447D+00
   0   299    0.244915-168    0.106574D-76    0.617847-165    0.421447D+00
   0   300    0.321789-169    0.350174D-77    0.934273-166    0.421447D+00
   0   301    0.420405-170    0.114738D-77    0.114321-166    0.421447D+00
   0   302    0.556320-171    0.374907D-78    0.106219-167    0.421447D+00
   0   303    0.742851-172    0.122162D-78    0.178723-168    0.421447D+00
   0   304    0.973667-173    0.396962D-79    0.216252-169    0.421447D+00
   0   305    0.126916-173    0.128636D-79    0.389715-170    0.421447D+00
   0   306    0.167813-174    0.415699D-80    0.341442-171    0.421447D+00
   0   307    0.215891-175    0.133968D-80    0.659886-172    0.421447D+00
   0   308    0.291571-176    0.430558D-81    0.800651-173    0.421447D+00
   0   309    0.367745-177    0.137998D-81    0.111074-173    0.421447D+00
   0   310    0.484459-178    0.441089D-82    0.932916-175    0.421447D+00
   0   311    0.622567-179    0.140603D-82    0.165282-175    0.421447D+00
   0   312    0.783807-180    0.446970D-83    0.179696-176    0.421447D+00
   0   313    0.987240-181    0.141704D-83    0.232913-177    0.421447D+00
   0   314    0.125162-181    0.448031D-84    0.369376-178    0.421447D+00
   0   315    0.157768-182    0.141272D-84    0.335183-179    0.421447D+00
   0   316    0.196096-183    0.444255D-85    0.511236-180    0.421447D+00
   0   317    0.244125-184    0.139327D-85    0.640286-181    0.421447D+00
   0   318    0.307940-185    0.435782D-86    0.822453-182    0.421447D+00
   0   319    0.383179-186    0.135936D-86    0.109464-182    0.421447D+00
   0   320    0.473508-187    0.422898D-87    0.146253-183    0.421447D+00
   0   321    0.575797-188    0.131212D-87    0.160851-184    0.421447D+00
   0   322    0.720988-189    0.406023D-88    0.214184-185    0.421447D+00
   0   323    0.898076-190    0.125305D-88    0.225314-186    0.421447D+00
   0   324    0.110705-190    0.385683D-89    0.354578-187    0.421447D+00
   0   325    0.132895-191    0.118396D-89    0.447311-188    0.421447D+00
   0   326    0.159597-192    0.362488D-90    0.367009-189    0.421447D+00
   0   327    0.194280-193    0.110688D-90    0.456389-190    0.421447D+00
   0   328    0.235621-194    0.337099D-91    0.611015-191    0.421447D+00
   0   329    0.280111-195    0.102393D-91    0.719828-192    0.421447D+00
   0   330    0.337060-196    0.310197D-92    0.963409-193    0.421447D+00
   0   331    0.409292-197    0.937270D-93    0.946059-194    0.421447D+00
   0   332    0.487710-198    0.282457D-93    0.115009-194    0.421447D+00
   0   333    0.589039-199    0.848993D-94    0.177518-195    0.421447D+00
   0   334    0.707496-200    0.254519D-94    0.194382-196    0.421447D+00
   0   335    0.835014-201    0.761033D-95    0.223739-197    0.421447D+00
   0   336    0.971496-202    0.226964D-95    0.276643-198    0.421447D+00
   0   337    0.115509-202    0.675120D-96    0.365381-199    0.421447D+00
   0   338    0.137225-203    0.200299D-96    0.342791-200    0.421447D+00
   0   339    0.159530-204    0.592723D-97    0.439366-201    0.421447D+00
   0   340    0.187229-205    0.174946D-97    0.535900-202    0.421447D+00
   0   341    0.221657-206    0.515033D-98    0.638647-203    0.421447D+00
   0   342    0.255205-207    0.151233D-98    0.681871-204    0.421447D+00
   0   343    0.286975-208    0.442940D-99    0.901820-205    0.421447D+00
   0   344    0.338479-209    0.129398D-99    0.110612-205    0.421447D+00
   0   345    0.399831-210    0.377051-100    0.128060-206    0.421447D+00
   0   346    0.453291-211    0.109588-100    0.136187-207    0.421447D+00
   0   347    0.523421-212    0.317699-101    0.164611-208    0.421447D+00
   0   348    0.586546-213    0.918682-102    0.183875-209    0.421447D+00
   0   349    0.672809-214    0.264978-102    0.171356-210    0.421447D+00
   0   350    0.767870-215    0.762350-103    0.188802-211    0.421447D+00
   0   351    0.871175-216    0.218775-103    0.209300-212    0.421447D+00
   0   352    0.963922-217    0.626247-104    0.284820-213    0.421447D+00
   0   353    0.109652-217    0.178812-104    0.298976-214    0.421447D+00
   0   354    0.122484-218    0.509278-105    0.351730-215    0.421447D+00
   0   355    0.138213-219    0.144685-105    0.395823-216    0.421447D+00
   0   356    0.150652-220    0.410015-106    0.497095-217    0.421447D+00
   0   357    0.173445-221    0.115902-106    0.536473-218    0.421447D+00
   0   358    0.194079-222    0.326810-107    0.632847-219    0.421447D+00
   0   359    0.222443-223    0.919215-108    0.524018-220    0.421447D+00
   0   360    0.239698-224    0.257904-108    0.770955-221    0.421447D+00
   0   361    0.264300-225    0.721803-109    0.946275-222    0.421447D+00
   0   362    0.284144-226    0.201513-109    0.907465-223    0.421447D+00
   0   363    0.313641-227    0.561192-110    0.103655-223    0.421447D+00
   0   364    0.344487-228    0.155900-110    0.102786-224    0.421447D+00
   0   365    0.367751-229    0.432027-111    0.100678-225    0.421447D+00
   0   366    0.400579-230    0.119428-111    0.130318-226    0.421447D+00
   0   367    0.428091-231    0.329331-112    0.126169-227    0.421447D+00
   0   368    0.458494-232    0.905929-113    0.167744-228    0.421447D+00
   0   369    0.494749-233    0.248595-113    0.138336-229    0.421447D+00
   0   370    0.523821-234    0.680501-114    0.145193-230    0.421447D+00
   0   371    0.567386-235    0.185825-114    0.175511-231    0.421447D+00
   0   372    0.603932-236    0.506203-115    0.223174-232    0.421447D+00
   0   373    0.630946-237    0.137559-115    0.178176-233    0.421447D+00
   0   374    0.662551-238    0.372904-116    0.244052-234    0.421447D+00
   0   375    0.696291-239    0.100845-116    0.207569-235    0.421447D+00
   0   376    0.725531-240    0.272058-117    0.234282-236    0.421447D+00
   0   377    0.781365-241    0.732185-118    0.227048-237    0.421447D+00
   0   378    0.822072-242    0.196578-118    0.293079-238    0.421447D+00
   0   379    0.853481-243    0.526505-119    0.294022-239    0.421447D+00
   0   380    0.871481-244    0.140679-119    0.300504-240    0.421447D+00
   0   381    0.913367-245    0.374985-120    0.340922-241    0.421447D+00
   0   382    0.946871-246    0.997152-121    0.278699-242    0.421447D+00
   0   383    0.957781-247    0.264528-121    0.298792-243    0.421447D+00
   0   384    0.982155-248    0.700078-122    0.292911-244    0.421447D+00
   0   385    0.101127-248    0.184837-122    0.405023-245    0.421447D+00
   0   386    0.104891-249    0.486855-123    0.416142-246    0.421447D+00
   0   387    0.108621-250    0.127932-123    0.374108-247    0.421447D+00
   0   388    0.108660-251    0.335378-124    0.350300-248    0.421447D+00
   0   389    0.111421-252    0.877128-125    0.346335-249    0.421447D+00
   0   390    0.113818-253    0.228859-125    0.450674-250    0.421447D+00
   0   391    0.111636-254    0.595730-126    0.355109-251    0.421447D+00
   0   392    0.114722-255    0.154708-126    0.341549-252    0.421447D+00
   0   393    0.113700-256    0.400826-127    0.442053-253    0.421447D+00
   0   394    0.113646-257    0.103606-127    0.407021-254    0.421447D+00
   0   395    0.113934-258    0.267175-128    0.436607-255    0.421447D+00
   0   396    0.112406-259    0.687366-129    0.449006-256    0.421447D+00
   0   397    0.110797-260    0.176387-129    0.470233-257    0.421447D+00