variables =  "IG"  "JG"  "PHI"  "Temp."  "Latent_heat"  "mm"
ZONE  I=  401  J=  101
   0     0    0.100000D+01    0.922513D+00    0.000000D+00    0.188859D+00
   0     1    0.100000D+01    0.922513D+00    0.000000D+00    0.188859D+00
   0     2    0.100000D+01    0.922659D+00    0.000000D+00    0.188597D+00
   0     3    0.100000D+01    0.922951D+00    0.000000D+00    0.188072D+00
   0     4    0.100000D+01    0.923388D+00    0.000000D+00    0.187285D+00
   0     5    0.100000D+01    0.923970D+00    0.000000D+00    0.186232D+00
   0     6    0.100000D+01    0.924694D+00    0.000000D+00    0.184912D+00
   0     7    0.100000D+01    0.925560D+00    0.000000D+00    0.183322D+00
   0     8    0.100000D+01    0.926566D+00    0.000000D+00    0.181459D+00
   0     9    0.100000D+01    0.927709D+00    0.000000D+00    0.179320D+00
   0    10    0.100000D+01    0.928987D+00    0.000000D+00    0.176900D+00
   0    11    0.100000D+01    0.930398D+00    0.000000D+00    0.174196D+00
   0    12    0.100000D+01    0.931938D+00    0.000000D+00    0.171202D+00
   0    13    0.100000D+01    0.933605D+00    0.000000D+00    0.167913D+00
   0    14    0.100000D+01    0.935396D+00    0.000000D+00    0.164323D+00
   0    15    0.100000D+01    0.937306D+00    0.000000D+00    0.160428D+00
   0    16    0.100000D+01    0.939334D+00    0.000000D+00    0.156221D+00
   0    17    0.100000D+01    0.941474D+00    0.000000D+00    0.151695D+00
   0    18    0.100000D+01    0.943726D+00    0.000000D+00    0.146844D+00
   0    19    0.100000D+01    0.946084D+00    0.000000D+00    0.141661D+00
   0    20    0.100000D+01    0.948547D+00    0.000000D+00    0.136139D+00
   0    21    0.100000D+01    0.951111D+00    0.000000D+00    0.130269D+00
   0    22    0.100000D+01    0.953776D+00    0.000000D+00    0.124042D+00
   0    23    0.100000D+01    0.956541D+00   -0.133227D-10    0.117449D+00
   0    24    0.100000D+01    0.959404D+00   -0.266454D-10    0.110477D+00
   0    25    0.100000D+01    0.962368D+00    0.119904D-09    0.103112D+00
   0    26    0.100000D+01    0.965435D+00    0.254463D-08    0.953391D-01
   0    27    0.100000D+01    0.968609D+00    0.102451D-07    0.871379D-01
   0    28    0.100000D+01    0.971897D+00   -0.407274D-07    0.784863D-01
   0    29    0.100000D+01    0.975305D+00    0.403637D-06    0.693584D-01
   0    30    0.100000D+01    0.978845D+00    0.679169D-05    0.597248D-01
   0    31    0.100000D+01    0.982528D+00    0.118224D-04    0.495521D-01
   0    32    0.999999D+00    0.986372D+00   -0.258118D-03    0.387998D-01
   0    33    0.999996D+00    0.990401D+00    0.180135D-02    0.274130D-01
   0    34    0.999972D+00    0.994650D+00    0.183361D-01    0.153075D-01
   0    35    0.999827D+00    0.999174D+00    0.231474D-01    0.235776D-02
   0    36    0.998928D+00    0.100406D+01   -0.511942D-01   -0.116171D-01
   0    37    0.993551D+00    0.100947D+01    0.270711D+01   -0.270463D-01
   0    38    0.961154D+00    0.101566D+01    0.327397D+01   -0.449659D-01
   0    39    0.790645D+00    0.102108D+01    0.826405D+02   -0.591213D-01
   0    40    0.254683D+00    0.102788D+01    0.498654D+02   -0.813989D-01
   0    41    0.584188D-01    0.102444D+01    0.331894D+02   -0.681562D-01
   0    42    0.176682D-01    0.102071D+01    0.258852D+01   -0.584800D-01
   0    43    0.917478D-02    0.101696D+01    0.360928D+01   -0.482812D-01
   0    44    0.806992D-02    0.101265D+01   -0.246155D+01   -0.361654D-01
   0    45    0.870537D-02    0.101055D+01    0.424701D+01   -0.305175D-01
   0    46    0.947497D-02    0.100928D+01   -0.332781D+01   -0.264355D-01
   0    47    0.101131D-01    0.100664D+01   -0.421000D+01   -0.191996D-01
   0    48    0.107570D-01    0.100523D+01   -0.115459D+01   -0.149769D-01
   0    49    0.111631D-01    0.100489D+01   -0.610207D+01   -0.135503D-01
   0    50    0.111922D-01    0.100417D+01   -0.337398D+00   -0.124093D-01
   0    51    0.117217D-01    0.100342D+01   -0.441363D+01   -0.979205D-02
   0    52    0.119262D-01    0.100356D+01    0.383944D+01   -0.105470D-01
   0    53    0.121322D-01    0.100336D+01   -0.130625D+01   -0.964185D-02
   0    54    0.121819D-01    0.100180D+01   -0.125504D+01   -0.543060D-02
   0    55    0.123111D-01    0.100101D+01    0.198860D+01   -0.229312D-02
   0    56    0.125205D-01    0.100102D+01   -0.209060D+01   -0.273407D-02
   0    57    0.127330D-01    0.100046D+01    0.998840D+00   -0.190973D-02
   0    58    0.132343D-01    0.100092D+01   -0.566287D+00   -0.239327D-02
   0    59    0.135093D-01    0.100068D+01   -0.244068D+01   -0.159133D-02
   0    60    0.132507D-01    0.100078D+01    0.611276D+01   -0.238364D-02
   0    61    0.131691D-01    0.100058D+01    0.604107D+01   -0.194790D-02
   0    62    0.134489D-01    0.999664D+00    0.599104D+01    0.319325D-03
   0    63    0.132910D-01    0.998597D+00   -0.300860D+01    0.459124D-02
   0    64    0.133022D-01    0.998235D+00    0.692283D+01    0.482782D-02
   0    65    0.140541D-01    0.998615D+00   -0.919851D+01    0.346105D-02
   0    66    0.139879D-01    0.997785D+00    0.126851D+01    0.577927D-02
   0    67    0.140841D-01    0.999379D+00    0.695397D+01    0.131144D-02
   0    68    0.142668D-01    0.999033D+00    0.243088D+01    0.297737D-02
   0    69    0.142673D-01    0.997844D+00   -0.297900D+01    0.682292D-02
   0    70    0.146218D-01    0.997438D+00    0.461216D+01    0.765352D-02
   0    71    0.146742D-01    0.997513D+00   -0.581431D+01    0.684638D-02
   0    72    0.143819D-01    0.998611D+00    0.309221D+01    0.452126D-02
   0    73    0.146308D-01    0.998297D+00   -0.242981D+01    0.539078D-02
   0    74    0.149449D-01    0.997639D+00   -0.629248D+01    0.726609D-02
   0    75    0.147316D-01    0.997355D+00    0.675065D+01    0.697532D-02
   0    76    0.149907D-01    0.996876D+00   -0.405517D+01    0.827358D-02
   0    77    0.152265D-01    0.997057D+00   -0.612764D+01    0.802092D-02
   0    78    0.152082D-01    0.998550D+00    0.128907D+01    0.383778D-02
   0    79    0.147671D-01    0.998445D+00   -0.693245D+01    0.507805D-02
   0    80    0.149685D-01    0.997918D+00    0.838230D+01    0.650619D-02
   0    81    0.151137D-01    0.997261D+00    0.728891D+01    0.711010D-02
   0    82    0.152691D-01    0.997738D+00    0.366472D+01    0.627418D-02
   0    83    0.152436D-01    0.997994D+00    0.508893D+01    0.574288D-02
   0    84    0.152234D-01    0.997225D+00    0.516746D+01    0.834952D-02
   0    85    0.151854D-01    0.997318D+00    0.848067D+00    0.805068D-02
   0    86    0.153022D-01    0.997632D+00    0.754478D+01    0.727739D-02
   0    87    0.152870D-01    0.997635D+00   -0.972817D+01    0.656407D-02
   0    88    0.148897D-01    0.997654D+00   -0.253342D+01    0.599320D-02
   0    89    0.151333D-01    0.997525D+00   -0.229966D+01    0.696237D-02
   0    90    0.151491D-01    0.997519D+00    0.257565D+01    0.664934D-02
   0    91    0.151815D-01    0.997115D+00   -0.347081D+01    0.897445D-02
   0    92    0.157937D-01    0.996949D+00   -0.204545D+01    0.897283D-02
   0    93    0.148950D-01    0.997211D+00    0.345296D+01    0.855710D-02
   0    94    0.153105D-01    0.997109D+00   -0.326509D+01    0.870418D-02
   0    95    0.151975D-01    0.996023D+00   -0.116697D+01    0.119869D-01
   0    96    0.153601D-01    0.996351D+00    0.815779D+01    0.103535D-01
   0    97    0.153999D-01    0.994377D+00    0.793861D+01    0.154426D-01
   0    98    0.152820D-01    0.994509D+00    0.112938D+01    0.153148D-01
   0    99    0.154845D-01    0.995027D+00    0.315802D+01    0.141408D-01
   0   100    0.153924D-01    0.995055D+00   -0.681838D+01    0.146677D-01
   0   101    0.155332D-01    0.995357D+00   -0.173941D+01    0.134358D-01
   0   102    0.159751D-01    0.995514D+00    0.116659D+01    0.128450D-01
   0   103    0.152627D-01    0.996327D+00   -0.649562D+01    0.107554D-01
   0   104    0.152471D-01    0.995924D+00   -0.828864D+01    0.110894D-01
   0   105    0.156988D-01    0.996393D+00   -0.450784D+01    0.964154D-02
   0   106    0.157031D-01    0.997212D+00   -0.241213D+01    0.772909D-02
   0   107    0.154434D-01    0.997624D+00    0.476402D+01    0.635062D-02
   0   108    0.153999D-01    0.997308D+00   -0.361827D+01    0.786370D-02
   0   109    0.153670D-01    0.997242D+00   -0.182551D+01    0.778972D-02
   0   110    0.151083D-01    0.996471D+00   -0.512855D+00    0.104077D-01
   0   111    0.155203D-01    0.995542D+00    0.795897D+00    0.133871D-01
   0   112    0.153884D-01    0.995008D+00    0.363651D+01    0.148931D-01
   0   113    0.159435D-01    0.994552D+00    0.676022D+01    0.153544D-01
   0   114    0.155727D-01    0.995705D+00   -0.244066D+01    0.117630D-01
   0   115    0.151318D-01    0.994955D+00    0.113217D+01    0.143182D-01
   0   116    0.151223D-01    0.995098D+00   -0.457673D+01    0.148182D-01
   0   117    0.151563D-01    0.995093D+00    0.115256D+01    0.137876D-01
   0   118    0.154804D-01    0.995946D+00   -0.626858D+01    0.108284D-01
   0   119    0.157752D-01    0.996889D+00   -0.869763D+00    0.966553D-02
   0   120    0.156792D-01    0.996605D+00    0.533282D+01    0.994135D-02
   0   121    0.156070D-01    0.996357D+00   -0.680585D+01    0.109565D-01
   0   122    0.151934D-01    0.996654D+00   -0.447771D+01    0.949734D-02
   0   123    0.155049D-01    0.996677D+00    0.555691D+01    0.928607D-02
   0   124    0.154866D-01    0.995633D+00    0.222688D+01    0.127913D-01
   0   125    0.156406D-01    0.995470D+00   -0.686277D+01    0.121734D-01
   0   126    0.154762D-01    0.995354D+00   -0.883903D+01    0.132082D-01
   0   127    0.152178D-01    0.995571D+00   -0.895911D+01    0.127900D-01
   0   128    0.153448D-01    0.996192D+00   -0.331060D+01    0.995343D-02
   0   129    0.156176D-01    0.996361D+00   -0.767831D+01    0.992676D-02
   0   130    0.151098D-01    0.995988D+00   -0.464654D+00    0.113625D-01
   0   131    0.148762D-01    0.995683D+00    0.816454D+00    0.122337D-01
   0   132    0.154887D-01    0.996633D+00    0.576097D+01    0.984228D-02
   0   133    0.155640D-01    0.996297D+00    0.155182D+01    0.101223D-01
   0   134    0.155341D-01    0.995849D+00   -0.754416D+01    0.117505D-01
   0   135    0.157115D-01    0.995212D+00    0.467159D+01    0.143596D-01
   0   136    0.157429D-01    0.995241D+00   -0.590534D+01    0.136779D-01
   0   137    0.149905D-01    0.995791D+00    0.543559D+01    0.122872D-01
   0   138    0.152322D-01    0.996817D+00    0.533698D+01    0.962717D-02
   0   139    0.151299D-01    0.995816D+00    0.752031D+01    0.120318D-01
   0   140    0.150154D-01    0.995533D+00    0.448759D+01    0.129458D-01
   0   141    0.150894D-01    0.995786D+00   -0.861577D+01    0.127986D-01
   0   142    0.149361D-01    0.995920D+00    0.743368D+01    0.116755D-01
   0   143    0.150267D-01    0.995166D+00    0.535108D+01    0.141697D-01
   0   144    0.152525D-01    0.994827D+00   -0.692684D+01    0.142726D-01
   0   145    0.149754D-01    0.995715D+00    0.619015D+01    0.127567D-01
   0   146    0.153124D-01    0.996164D+00   -0.684422D+01    0.101616D-01
   0   147    0.154622D-01    0.995835D+00    0.795996D+01    0.113656D-01
   0   148    0.155941D-01    0.995353D+00   -0.582704D+01    0.139469D-01
   0   149    0.155681D-01    0.996520D+00    0.879417D+01    0.992173D-02
   0   150    0.152848D-01    0.996676D+00   -0.867254D+01    0.908441D-02
   0   151    0.151023D-01    0.996478D+00   -0.302223D+01    0.105360D-01
   0   152    0.147965D-01    0.995192D+00   -0.439744D+01    0.131145D-01
   0   153    0.151466D-01    0.995792D+00    0.313968D+01    0.113460D-01
   0   154    0.150341D-01    0.995919D+00   -0.395049D+01    0.121029D-01
   0   155    0.149556D-01    0.995887D+00   -0.241979D+01    0.123906D-01
   0   156    0.148113D-01    0.995105D+00    0.858434D+01    0.146485D-01
   0   157    0.152353D-01    0.995384D+00    0.226959D+01    0.125193D-01
   0   158    0.149521D-01    0.995720D+00    0.232096D+01    0.119150D-01
   0   159    0.148897D-01    0.996448D+00   -0.505328D+01    0.101874D-01
   0   160    0.151982D-01    0.997821D+00   -0.556646D+01    0.635422D-02
   0   161    0.151749D-01    0.997335D+00   -0.795395D+01    0.736008D-02
   0   162    0.155499D-01    0.997478D+00    0.378977D+01    0.656081D-02
   0   163    0.152470D-01    0.997968D+00    0.903108D+00    0.638991D-02
   0   164    0.150519D-01    0.997052D+00    0.888396D+01    0.801912D-02
   0   165    0.153056D-01    0.996263D+00    0.861230D+01    0.108029D-01
   0   166    0.150822D-01    0.997613D+00   -0.605558D+00    0.717595D-02
   0   167    0.147087D-01    0.996689D+00   -0.732334D+01    0.948729D-02
   0   168    0.151686D-01    0.996776D+00    0.836673D+01    0.943200D-02
   0   169    0.149328D-01    0.995895D+00   -0.855921D+01    0.115529D-01
   0   170    0.148360D-01    0.997027D+00   -0.222513D+01    0.813328D-02
   0   171    0.152147D-01    0.997300D+00   -0.752212D+01    0.799204D-02
   0   172    0.148621D-01    0.996659D+00   -0.361631D+01    0.949605D-02
   0   173    0.148778D-01    0.997626D+00    0.536091D+00    0.700799D-02
   0   174    0.150234D-01    0.997601D+00    0.469973D+01    0.718900D-02
   0   175    0.149977D-01    0.998200D+00    0.517463D+01    0.547640D-02
   0   176    0.147995D-01    0.999039D+00    0.503576D+01    0.346473D-02
   0   177    0.150625D-01    0.999274D+00    0.126674D+01    0.175530D-02
   0   178    0.146558D-01    0.999103D+00    0.949636D+01    0.318871D-02
   0   179    0.147742D-01    0.998001D+00   -0.565068D+01    0.542462D-02
   0   180    0.148458D-01    0.997350D+00    0.649472D+01    0.712086D-02
   0   181    0.146337D-01    0.996874D+00    0.804107D+00    0.927459D-02
   0   182    0.145026D-01    0.996761D+00    0.720680D+01    0.980843D-02
   0   183    0.143054D-01    0.996371D+00    0.671104D+01    0.101121D-01
   0   184    0.149268D-01    0.996429D+00    0.474084D+01    0.986151D-02
   0   185    0.146832D-01    0.997156D+00   -0.700580D+01    0.805828D-02
   0   186    0.144735D-01    0.996595D+00   -0.220599D+01    0.976100D-02
   0   187    0.146825D-01    0.997468D+00   -0.279599D+01    0.724433D-02
   0   188    0.146128D-01    0.997254D+00   -0.388381D+00    0.733427D-02
   0   189    0.147595D-01    0.996842D+00    0.433722D+01    0.927068D-02
   0   190    0.147166D-01    0.996960D+00   -0.751195D+01    0.807052D-02
   0   191    0.147450D-01    0.997261D+00   -0.123969D+01    0.710164D-02
   0   192    0.147879D-01    0.997726D+00   -0.266057D+01    0.713645D-02
   0   193    0.148494D-01    0.997317D+00    0.688171D+01    0.709845D-02
   0   194    0.149201D-01    0.997885D+00   -0.643533D+01    0.660464D-02
   0   195    0.149738D-01    0.997083D+00   -0.718638D+00    0.845652D-02
   0   196    0.146154D-01    0.997558D+00   -0.271644D+01    0.730069D-02
   0   197    0.145004D-01    0.997687D+00   -0.385352D+01    0.603872D-02
   0   198    0.148170D-01    0.996639D+00   -0.696755D+01    0.970055D-02
   0   199    0.145521D-01    0.995752D+00   -0.150965D+01    0.118116D-01
   0   200    0.145844D-01    0.996754D+00    0.205257D+01    0.921611D-02
   0   201    0.147111D-01    0.996601D+00    0.729045D+01    0.924873D-02
   0   202    0.147535D-01    0.996599D+00    0.618465D+00    0.961911D-02
   0   203    0.144826D-01    0.997105D+00   -0.545887D+01    0.801740D-02
   0   204    0.145754D-01    0.998166D+00   -0.833627D+01    0.572637D-02
   0   205    0.138793D-01    0.997976D+00    0.115353D+01    0.638049D-02
   0   206    0.140000D-01    0.997168D+00    0.151165D+01    0.811531D-02
   0   207    0.146156D-01    0.996304D+00   -0.659516D+01    0.101153D-01
   0   208    0.143199D-01    0.997167D+00   -0.102466D+00    0.865280D-02
   0   209    0.140383D-01    0.997860D+00    0.592227D+00    0.688588D-02
   0   210    0.142902D-01    0.998483D+00   -0.658429D+01    0.465004D-02
   0   211    0.146475D-01    0.998228D+00    0.367658D+01    0.484864D-02
   0   212    0.147214D-01    0.997067D+00   -0.201371D+01    0.833167D-02
   0   213    0.142700D-01    0.997117D+00   -0.585013D+01    0.869599D-02
   0   214    0.143498D-01    0.996970D+00   -0.848922D+01    0.814553D-02
   0   215    0.141019D-01    0.997587D+00   -0.542825D+01    0.715446D-02
   0   216    0.143770D-01    0.998354D+00   -0.353246D+01    0.435987D-02
   0   217    0.140960D-01    0.997564D+00    0.497420D+00    0.658627D-02
   0   218    0.145030D-01    0.998330D+00   -0.250362D+01    0.418940D-02
   0   219    0.140348D-01    0.998568D+00   -0.596216D+01    0.436656D-02
   0   220    0.138908D-01    0.997909D+00   -0.174994D+01    0.623422D-02
   0   221    0.143591D-01    0.998412D+00    0.556624D+01    0.406013D-02
   0   222    0.142177D-01    0.997950D+00    0.589882D+00    0.588107D-02
   0   223    0.141156D-01    0.998450D+00   -0.650442D+01    0.463464D-02
   0   224    0.145311D-01    0.999588D+00   -0.244913D+01    0.150943D-02
   0   225    0.146255D-01    0.998864D+00   -0.397946D+01    0.325889D-02
   0   226    0.140957D-01    0.998960D+00   -0.284386D+01    0.219508D-02
   0   227    0.138609D-01    0.999041D+00    0.619700D+01    0.234571D-02
   0   228    0.141444D-01    0.999524D+00    0.634054D+01    0.195054D-02
   0   229    0.136878D-01    0.998362D+00   -0.753460D+01    0.420562D-02
   0   230    0.140025D-01    0.997093D+00    0.392551D+01    0.847885D-02
   0   231    0.140731D-01    0.998353D+00   -0.364805D+01    0.491761D-02
   0   232    0.145835D-01    0.998167D+00   -0.201057D+01    0.449261D-02
   0   233    0.144528D-01    0.998588D+00   -0.415100D+01    0.424597D-02
   0   234    0.144637D-01    0.998411D+00   -0.438562D+01    0.451699D-02
   0   235    0.141722D-01    0.998172D+00    0.811195D+01    0.570655D-02
   0   236    0.141167D-01    0.998344D+00   -0.151416D+01    0.489215D-02
   0   237    0.142839D-01    0.996888D+00   -0.530940D+01    0.860991D-02
   0   238    0.143369D-01    0.997476D+00   -0.189736D+01    0.746461D-02
   0   239    0.142533D-01    0.996768D+00   -0.612667D+01    0.921373D-02
   0   240    0.144185D-01    0.997481D+00    0.125322D+01    0.755779D-02
   0   241    0.142461D-01    0.997098D+00    0.375101D+01    0.782254D-02
   0   242    0.143550D-01    0.997223D+00   -0.758912D+01    0.783551D-02
   0   243    0.145972D-01    0.996982D+00   -0.424127D+01    0.867569D-02
   0   244    0.144250D-01    0.998247D+00    0.688614D+01    0.566391D-02
   0   245    0.142516D-01    0.998703D+00    0.212666D+01    0.390060D-02
   0   246    0.140354D-01    0.996973D+00   -0.586814D+01    0.896358D-02
   0   247    0.143609D-01    0.997097D+00    0.751687D+01    0.807205D-02
   0   248    0.146360D-01    0.997947D+00    0.548233D+01    0.554681D-02
   0   249    0.143950D-01    0.997919D+00    0.930772D+01    0.670352D-02
   0   250    0.145084D-01    0.998381D+00    0.750215D+01    0.423973D-02
   0   251    0.146640D-01    0.998138D+00   -0.387750D+01    0.495195D-02
   0   252    0.145144D-01    0.998277D+00    0.141205D+01    0.455625D-02
   0   253    0.143600D-01    0.998203D+00    0.173018D+01    0.445034D-02
   0   254    0.148386D-01    0.998424D+00   -0.130254D+01    0.476375D-02
   0   255    0.143558D-01    0.997892D+00   -0.526541D+01    0.590760D-02
   0   256    0.140648D-01    0.100006D+01   -0.677529D+00    0.189355D-03
   0   257    0.141188D-01    0.998157D+00    0.525422D-02    0.501511D-02
   0   258    0.137355D-01    0.998752D+00    0.684471D+01    0.379767D-02
   0   259    0.138953D-01    0.999239D+00    0.818210D+01    0.257244D-02
   0   260    0.141494D-01    0.999915D+00    0.373616D+01   -0.104285D-03
   0   261    0.141978D-01    0.999254D+00   -0.321516D+01    0.162099D-02
   0   262    0.141979D-01    0.100003D+01   -0.866232D+00    0.330917D-03
   0   263    0.137944D-01    0.998867D+00    0.562482D+01    0.297281D-02
   0   264    0.139294D-01    0.999394D+00   -0.230829D+01    0.152134D-02
   0   265    0.139856D-01    0.999501D+00   -0.487058D+01    0.163253D-02
   0   266    0.141322D-01    0.998572D+00   -0.388525D+01    0.434544D-02
   0   267    0.142449D-01    0.999126D+00    0.392397D+01    0.225891D-02
   0   268    0.136714D-01    0.998351D+00    0.190076D+01    0.478673D-02
   0   269    0.140682D-01    0.998793D+00   -0.567516D+01    0.392475D-02
   0   270    0.142607D-01    0.997967D+00   -0.539453D+00    0.646023D-02
   0   271    0.141536D-01    0.997471D+00   -0.499574D+01    0.681548D-02
   0   272    0.143325D-01    0.998133D+00   -0.755921D+01    0.498262D-02
   0   273    0.148837D-01    0.997989D+00   -0.444198D+01    0.541559D-02
   0   274    0.148517D-01    0.997607D+00    0.561591D+01    0.746890D-02
   0   275    0.146941D-01    0.997087D+00   -0.687742D+01    0.864209D-02
   0   276    0.146551D-01    0.996963D+00   -0.702030D+00    0.862100D-02
   0   277    0.151909D-01    0.996456D+00    0.531218D+01    0.108252D-01
   0   278    0.153119D-01    0.995357D+00   -0.393995D+01    0.137408D-01
   0   279    0.153595D-01    0.994393D+00    0.106683D+01    0.168668D-01
   0   280    0.158935D-01    0.992510D+00    0.289332D+01    0.219255D-01
   0   281    0.165031D-01    0.988432D+00   -0.333461D+01    0.330541D-01
   0   282    0.176891D-01    0.983071D+00    0.434900D+00    0.480883D-01
   0   283    0.196334D-01    0.974947D+00    0.636097D+01    0.698602D-01
   0   284    0.232554D-01    0.961748D+00   -0.954787D+01    0.105443D+00
   0   285    0.274520D-01    0.939614D+00   -0.105938D+02    0.155909D+00
   0   286    0.296001D-01    0.905008D+00   -0.104147D+02    0.218066D+00
   0   287    0.252632D-01    0.851461D+00   -0.203095D+01    0.280349D+00
   0   288    0.174250D-01    0.773315D+00    0.986564D+01    0.331222D+00
   0   289    0.931528D-02    0.673446D+00    0.234547D+01    0.364998D+00
   0   290    0.445475D-02    0.563863D+00    0.326853D+01    0.385515D+00
   0   291    0.178397D-02    0.454784D+00    0.170240D+01    0.398083D+00
   0   292    0.688787D-03    0.355651D+00    0.139834D+00    0.405923D+00
   0   293    0.246503D-03    0.270853D+00    0.255859D+00    0.410975D+00
   0   294    0.859850D-04    0.201604D+00    0.962784D-01    0.414318D+00
   0   295    0.291366D-04    0.147073D+00    0.209867D-02    0.416574D+00
   0   296    0.950901D-05    0.105420D+00    0.138307D-02    0.418115D+00
   0   297    0.294317D-05    0.744061D-01    0.131290D-02    0.419173D+00
   0   298    0.891077D-06    0.518108D-01    0.255915D-03    0.419901D+00
   0   299    0.263030D-06    0.356527D-01    0.145871D-03    0.420401D+00
   0   300    0.808880D-07    0.242814D-01    0.926225D-04    0.420743D+00
   0   301    0.236311D-07    0.163884D-01    0.257994D-04    0.420975D+00
   0   302    0.682455D-08    0.109744D-01    0.423209D-05    0.421133D+00
   0   303    0.197653D-08    0.729877D-02    0.214753D-05    0.421239D+00
   0   304    0.582337D-09    0.482530D-02    0.434262D-06    0.421310D+00
   0   305    0.173475D-09    0.317348D-02    0.130111D-06    0.421357D+00
   0   306    0.544064D-10    0.207767D-02    0.108304D-07    0.421388D+00
   0   307    0.166147D-10    0.135486D-02    0.188714D-07    0.421409D+00
   0   308    0.493147D-11    0.880447D-03    0.604768D-08    0.421422D+00
   0   309    0.147894D-11    0.570419D-03    0.245337D-09    0.421431D+00
   0   310    0.430274D-12    0.368576D-03    0.189996D-09    0.421437D+00
   0   311    0.128033D-12    0.237598D-03    0.634761D-10    0.421440D+00
   0   312    0.360221D-13    0.152848D-03    0.392367D-10    0.421443D+00
   0   313    0.100630D-13    0.981494D-04    0.210089D-11    0.421444D+00
   0   314    0.288342D-14    0.629239D-04    0.938540D-12    0.421445D+00
   0   315    0.786641D-15    0.402834D-04    0.816390D-12    0.421446D+00
   0   316    0.217278D-15    0.257566D-04    0.123497D-12    0.421446D+00
   0   317    0.592935D-16    0.164500D-04    0.557949D-13    0.421447D+00
   0   318    0.159971D-16    0.104957D-04    0.182134D-13    0.421447D+00
   0   319    0.428366D-17    0.669072D-05    0.223633D-14    0.421447D+00
   0   320    0.115790D-17    0.426183D-05    0.371681D-15    0.421447D+00
   0   321    0.308710D-18    0.271279D-05    0.243148D-15    0.421447D+00
   0   322    0.791820D-19    0.172570D-05    0.540829D-16    0.421447D+00
   0   323    0.203485D-19    0.109718D-05    0.932447D-17    0.421447D+00
   0   324    0.510509D-20    0.697226D-06    0.393812D-17    0.421447D+00
   0   325    0.132523D-20    0.442873D-06    0.171353D-17    0.421447D+00
   0   326    0.340005D-21    0.281198D-06    0.388484D-18    0.421447D+00
   0   327    0.877026D-22    0.178482D-06    0.375545D-19    0.421447D+00
   0   328    0.222727D-22    0.113249D-06    0.315718D-19    0.421447D+00
   0   329    0.574449D-23    0.718381D-07    0.307612D-20    0.421447D+00
   0   330    0.140565D-23    0.455578D-07    0.812515D-21    0.421447D+00
   0   331    0.346213D-24    0.288848D-07    0.351926D-21    0.421447D+00
   0   332    0.891545D-25    0.183098D-07    0.114939D-21    0.421447D+00
   0   333    0.218458D-25    0.116042D-07    0.193036D-22    0.421447D+00
   0   334    0.542158D-26    0.735316D-08    0.275371D-23    0.421447D+00
   0   335    0.132954D-26    0.465869D-08    0.194145D-23    0.421447D+00
   0   336    0.332664D-27    0.295115D-08    0.398860D-24    0.421447D+00
   0   337    0.804323D-28    0.186923D-08    0.103647D-24    0.421447D+00
   0   338    0.196563D-28    0.118381D-08    0.225108D-25    0.421447D+00
   0   339    0.494392D-29    0.749648D-09    0.511859D-26    0.421447D+00
   0   340    0.122038D-29    0.474667D-09    0.104857D-26    0.421447D+00
   0   341    0.306767D-30    0.300526D-09    0.266751D-27    0.421447D+00
   0   342    0.745036D-31    0.190258D-09    0.967329D-28    0.421447D+00
   0   343    0.181947D-31    0.120440D-09    0.175061D-28    0.421447D+00
   0   344    0.441651D-32    0.762379D-10    0.326940D-29    0.421447D+00
   0   345    0.107178D-32    0.482555D-10    0.117687D-29    0.421447D+00
   0   346    0.253634D-33    0.305422D-10    0.315984D-30    0.421447D+00
   0   347    0.608280D-34    0.193302D-10    0.224371D-31    0.421447D+00
   0   348    0.150519D-34    0.122336D-10    0.611324D-32    0.421447D+00
   0   349    0.369209D-35    0.774209D-11    0.147744D-32    0.421447D+00
   0   350    0.890369D-36    0.489948D-11    0.808650D-33    0.421447D+00
   0   351    0.215257D-36    0.310050D-11    0.192597D-33    0.421447D+00
   0   352    0.509557D-37    0.196203D-11    0.658852D-34    0.421447D+00
   0   353    0.121876D-37    0.124158D-11    0.527273D-35    0.421447D+00
   0   354    0.292321D-38    0.785665D-12    0.808947D-36    0.421447D+00
   0   355    0.698217D-39    0.497162D-12    0.346275D-36    0.421447D+00
   0   356    0.171286D-39    0.314600D-12    0.136058D-36    0.421447D+00
   0   357    0.409113D-40    0.199076D-12    0.577532D-37    0.421447D+00
   0   358    0.100617D-40    0.125974D-12    0.134593D-37    0.421447D+00
   0   359    0.239681D-41    0.797160D-13    0.161067D-38    0.421447D+00
   0   360    0.566615D-42    0.504446D-13    0.828959D-39    0.421447D+00
   0   361    0.135091D-42    0.319220D-13    0.183063D-39    0.421447D+00
   0   362    0.329420D-43    0.202009D-13    0.274502D-40    0.421447D+00
   0   363    0.756441D-44    0.127838D-13    0.632099D-41    0.421447D+00
   0   364    0.182224D-44    0.809016D-14    0.968476D-42    0.421447D+00
   0   365    0.444000D-45    0.511993D-14    0.272327D-42    0.421447D+00
   0   366    0.104356D-45    0.324026D-14    0.123106D-42    0.421447D+00
   0   367    0.252425D-46    0.205073D-14    0.254245D-43    0.421447D+00
   0   368    0.606214D-47    0.129792D-14    0.768807D-44    0.421447D+00
   0   369    0.144317D-47    0.821483D-15    0.169670D-44    0.421447D+00
   0   370    0.337560D-48    0.519951D-15    0.269135D-45    0.421447D+00
   0   371    0.819576D-49    0.329109D-15    0.102595D-45    0.421447D+00
   0   372    0.191312D-49    0.208319D-15    0.260650D-46    0.421447D+00
   0   373    0.455051D-50    0.131866D-15    0.501652D-47    0.421447D+00
   0   374    0.109351D-50    0.834742D-16    0.692728D-48    0.421447D+00
   0   375    0.264923D-51    0.528427D-16    0.345292D-48    0.421447D+00
   0   376    0.606493D-52    0.334528D-16    0.411534D-49    0.421447D+00
   0   377    0.143400D-52    0.211784D-16    0.922678D-50    0.421447D+00
   0   378    0.333631D-53    0.134082D-16    0.476875D-50    0.421447D+00
   0   379    0.798371D-54    0.848909D-17    0.853502D-51    0.421447D+00
   0   380    0.184714D-54    0.537485D-17    0.177522D-51    0.421447D+00
   0   381    0.442739D-55    0.340319D-17    0.550279D-52    0.421447D+00
   0   382    0.101420D-55    0.215486D-17    0.369340D-53    0.421447D+00
   0   383    0.240932D-56    0.136448D-17    0.112256D-53    0.421447D+00
   0   384    0.573824D-57    0.864030D-18    0.386158D-54    0.421447D+00
   0   385    0.134372D-57    0.547146D-18    0.112824D-54    0.421447D+00
   0   386    0.327428D-58    0.346489D-18    0.396641D-55    0.421447D+00
   0   387    0.761038D-59    0.219426D-18    0.104580D-55    0.421447D+00
   0   388    0.186646D-59    0.138962D-18    0.171077D-56    0.421447D+00
   0   389    0.441089D-60    0.880053D-19    0.546788D-57    0.421447D+00
   0   390    0.104779D-60    0.557335D-19    0.126304D-57    0.421447D+00
   0   391    0.249994D-61    0.352933D-19    0.867549D-59    0.421447D+00
   0   392    0.603716D-62    0.223446D-19    0.735383D-59    0.421447D+00
   0   393    0.145034D-62    0.141385D-19    0.390185D-60    0.421447D+00
   0   394    0.350018D-63    0.893283D-20    0.212949D-60    0.421447D+00
   0   395    0.814003D-64    0.562273D-20    0.100168D-60    0.421447D+00
   0   396    0.194808D-64    0.350568D-20    0.177048D-61    0.421447D+00
   0   397    0.456790D-65    0.213241D-20    0.490903D-62    0.421447D+00