variables =  "IG"  "JG"  "PHI"  "Temp."  "Latent_heat"  "mm"
ZONE  I=  401  J=  101
   0     0    0.100000D+01    0.812997D+00    0.000000D+00    0.309326D+00
   0     1    0.100000D+01    0.812997D+00    0.000000D+00    0.309326D+00
   0     2    0.100000D+01    0.813612D+00    0.000000D+00    0.308933D+00
   0     3    0.100000D+01    0.814841D+00    0.000000D+00    0.308142D+00
   0     4    0.100000D+01    0.816676D+00    0.000000D+00    0.306946D+00
   0     5    0.100000D+01    0.819107D+00    0.000000D+00    0.305332D+00
   0     6    0.100000D+01    0.822121D+00    0.000000D+00    0.303285D+00
   0     7    0.100000D+01    0.825704D+00    0.000000D+00    0.300782D+00
   0     8    0.100000D+01    0.829836D+00    0.000000D+00    0.297797D+00
   0     9    0.100000D+01    0.834497D+00    0.000000D+00    0.294298D+00
   0    10    0.100000D+01    0.839664D+00    0.000000D+00    0.290247D+00
   0    11    0.100000D+01    0.845312D+00    0.000000D+00    0.285598D+00
   0    12    0.100000D+01    0.851415D+00    0.000000D+00    0.280298D+00
   0    13    0.100000D+01    0.857946D+00    0.000000D+00    0.274284D+00
   0    14    0.100000D+01    0.864877D+00    0.000000D+00    0.267484D+00
   0    15    0.100000D+01    0.872179D+00    0.000000D+00    0.259816D+00
   0    16    0.100000D+01    0.879823D+00    0.106581D-09    0.251183D+00
   0    17    0.100000D+01    0.887782D+00    0.170530D-08    0.241478D+00
   0    18    0.100000D+01    0.896029D+00    0.301759D-07    0.230579D+00
   0    19    0.100000D+01    0.904540D+00   -0.104317D-07    0.218348D+00
   0    20    0.100000D+01    0.913296D+00   -0.127742D-05    0.204634D+00
   0    21    0.100000D+01    0.922283D+00   -0.402784D-06    0.189266D+00
   0    22    0.100000D+01    0.931502D+00   -0.556583D-04    0.172052D+00
   0    23    0.999999D+00    0.940971D+00    0.378164D-03    0.152763D+00
   0    24    0.999991D+00    0.950746D+00    0.288970D-02    0.131110D+00
   0    25    0.999936D+00    0.960937D+00    0.315085D-01    0.106685D+00
   0    26    0.999550D+00    0.971756D+00    0.258603D+00    0.788608D-01
   0    27    0.996918D+00    0.983616D+00    0.238332D+01    0.465521D-01
   0    28    0.980547D+00    0.997327D+00   -0.966888D+01    0.776942D-02
   0    29    0.881704D+00    0.101373D+01   -0.269557D+02   -0.387298D-01
   0    30    0.448466D+00    0.102871D+01   -0.114386D+03   -0.807906D-01
   0    31    0.105036D+00    0.102654D+01    0.469189D+02   -0.759703D-01
   0    32    0.289364D-01    0.102022D+01   -0.110769D+02   -0.573797D-01
   0    33    0.124005D-01    0.101659D+01   -0.282434D+01   -0.466547D-01
   0    34    0.945313D-02    0.101311D+01    0.310290D+01   -0.371739D-01
   0    35    0.957674D-02    0.100996D+01    0.563821D+01   -0.286374D-01
   0    36    0.101539D-01    0.100841D+01   -0.576325D+01   -0.241889D-01
   0    37    0.105483D-01    0.100619D+01    0.507412D+01   -0.174870D-01
   0    38    0.111018D-01    0.100491D+01   -0.673238D+01   -0.137551D-01
   0    39    0.112011D-01    0.100482D+01   -0.243921D+01   -0.132586D-01
   0    40    0.112490D-01    0.100440D+01    0.242134D+01   -0.121858D-01
   0    41    0.113515D-01    0.100394D+01   -0.443240D+01   -0.108742D-01
   0    42    0.113783D-01    0.100402D+01   -0.254235D+01   -0.108587D-01
   0    43    0.116439D-01    0.100365D+01   -0.399314D+01   -0.999438D-02
   0    44    0.117541D-01    0.100372D+01   -0.377652D+01   -0.113249D-01
   0    45    0.122405D-01    0.100343D+01    0.112741D+01   -0.101091D-01
   0    46    0.123954D-01    0.100232D+01   -0.265935D+00   -0.642676D-02
   0    47    0.124813D-01    0.100103D+01   -0.156038D+01   -0.261170D-02
   0    48    0.127041D-01    0.100117D+01    0.331290D+01   -0.347611D-02
   0    49    0.128370D-01    0.100060D+01   -0.468852D+01   -0.196699D-02
   0    50    0.133315D-01    0.100066D+01   -0.163714D+01   -0.219271D-02
   0    51    0.131165D-01    0.999971D+00    0.292481D+01   -0.462539D-03
   0    52    0.126894D-01    0.999038D+00   -0.577016D+01    0.338328D-02
   0    53    0.129535D-01    0.999347D+00   -0.164824D+01    0.211256D-02
   0    54    0.135486D-01    0.998764D+00   -0.390279D+01    0.315390D-02
   0    55    0.132630D-01    0.998833D+00   -0.235469D+01    0.281630D-02
   0    56    0.137274D-01    0.999213D+00    0.599061D+01    0.200975D-02
   0    57    0.137021D-01    0.998421D+00    0.421275D+01    0.407690D-02
   0    58    0.138311D-01    0.998160D+00    0.590454D+01    0.585586D-02
   0    59    0.139921D-01    0.999675D+00   -0.389908D+01    0.391987D-03
   0    60    0.139498D-01    0.999567D+00   -0.658067D+01    0.530987D-03
   0    61    0.140716D-01    0.999465D+00   -0.162625D+01    0.160424D-02
   0    62    0.141851D-01    0.999458D+00   -0.150054D+01    0.189884D-02
   0    63    0.142523D-01    0.999230D+00   -0.843357D+01    0.297753D-02
   0    64    0.144214D-01    0.999758D+00    0.185744D+01   -0.226179D-04
   0    65    0.141274D-01    0.998949D+00    0.831067D+01    0.297677D-02
   0    66    0.140178D-01    0.998401D+00   -0.168662D+01    0.455443D-02
   0    67    0.135497D-01    0.999053D+00    0.527563D+00    0.285441D-02
   0    68    0.140262D-01    0.998934D+00    0.519322D+01    0.367442D-02
   0    69    0.142140D-01    0.998444D+00   -0.351875D+01    0.368602D-02
   0    70    0.144586D-01    0.997113D+00    0.263211D+00    0.801829D-02
   0    71    0.140589D-01    0.997750D+00   -0.144756D+01    0.606591D-02
   0    72    0.139871D-01    0.997659D+00   -0.169026D+01    0.713053D-02
   0    73    0.142682D-01    0.996457D+00   -0.271741D+01    0.106620D-01
   0    74    0.144002D-01    0.996693D+00   -0.217105D+01    0.911817D-02
   0    75    0.140763D-01    0.998020D+00   -0.295085D+01    0.564796D-02
   0    76    0.143723D-01    0.997032D+00   -0.716115D+01    0.853239D-02
   0    77    0.140939D-01    0.998304D+00    0.753438D+01    0.435119D-02
   0    78    0.139056D-01    0.998563D+00    0.877074D+00    0.376168D-02
   0    79    0.139464D-01    0.998470D+00   -0.268775D+01    0.484907D-02
   0    80    0.142627D-01    0.997951D+00    0.496302D+01    0.525277D-02
   0    81    0.140796D-01    0.999417D+00    0.213460D+01    0.218034D-02
   0    82    0.137815D-01    0.999133D+00   -0.265952D+01    0.274265D-02
   0    83    0.138067D-01    0.999165D+00    0.160334D+01    0.191650D-02
   0    84    0.138324D-01    0.997253D+00   -0.366402D+01    0.764327D-02
   0    85    0.143208D-01    0.998016D+00    0.124806D+01    0.507807D-02
   0    86    0.137874D-01    0.999458D+00    0.896203D+01    0.203946D-02
   0    87    0.140954D-01    0.998594D+00   -0.749925D+00    0.431981D-02
   0    88    0.138655D-01    0.998683D+00    0.179810D+01    0.358217D-02
   0    89    0.140684D-01    0.999484D+00    0.378971D+01    0.203676D-02
   0    90    0.143437D-01    0.999787D+00   -0.289034D+01    0.520853D-03
   0    91    0.143742D-01    0.999825D+00    0.295953D+00    0.435954D-03
   0    92    0.141072D-01    0.997599D+00    0.650020D+01    0.646368D-02
   0    93    0.145206D-01    0.997114D+00    0.260533D+01    0.760048D-02
   0    94    0.150745D-01    0.998321D+00    0.209948D+00    0.477346D-02
   0    95    0.149413D-01    0.998774D+00    0.686835D+01    0.422107D-02
   0    96    0.147719D-01    0.996496D+00   -0.355030D+01    0.977715D-02
   0    97    0.143709D-01    0.997827D+00    0.781373D+01    0.546873D-02
   0    98    0.148046D-01    0.997444D+00   -0.732710D+01    0.755758D-02
   0    99    0.150207D-01    0.996989D+00    0.126566D+01    0.789391D-02
   0   100    0.147625D-01    0.995903D+00    0.802004D+01    0.112209D-01
   0   101    0.154441D-01    0.995789D+00   -0.118642D+01    0.112979D-01
   0   102    0.156080D-01    0.994885D+00   -0.838084D+01    0.150033D-01
   0   103    0.163962D-01    0.992540D+00   -0.790582D+01    0.211617D-01
   0   104    0.172350D-01    0.991160D+00   -0.254789D+01    0.261378D-01
   0   105    0.187702D-01    0.986096D+00    0.701616D+01    0.389700D-01
   0   106    0.201309D-01    0.979709D+00   -0.668907D+01    0.565111D-01
   0   107    0.230386D-01    0.968575D+00    0.157268D+01    0.881167D-01
   0   108    0.262641D-01    0.949712D+00    0.104026D+02    0.134268D+00
   0   109    0.293174D-01    0.919849D+00    0.156391D+02    0.193143D+00
   0   110    0.268567D-01    0.872187D+00   -0.484482D+01    0.260252D+00
   0   111    0.202219D-01    0.804395D+00    0.450625D+01    0.314837D+00
   0   112    0.120550D-01    0.713133D+00    0.101334D+02    0.354046D+00
   0   113    0.604254D-02    0.605438D+00    0.206478D+00    0.378977D+00
   0   114    0.255262D-02    0.494470D+00    0.262998D+00    0.394114D+00
   0   115    0.101586D-02    0.390696D+00    0.103361D+01    0.403435D+00
   0   116    0.368701D-03    0.300060D+00    0.293690D+00    0.409370D+00
   0   117    0.126778D-03    0.224844D+00    0.583665D-01    0.413261D+00
   0   118    0.431493D-04    0.164924D+00    0.319959D-01    0.415868D+00
   0   119    0.140448D-04    0.118745D+00    0.404107D-02    0.417638D+00
   0   120    0.446611D-05    0.841198D-01    0.394969D-02    0.418849D+00
   0   121    0.140070D-05    0.587517D-01    0.275777D-03    0.419681D+00
   0   122    0.422105D-06    0.405276D-01    0.102074D-03    0.420252D+00
   0   123    0.126380D-06    0.276547D-01    0.985366D-04    0.420642D+00
   0   124    0.380720D-07    0.186927D-01    0.321875D-05    0.420908D+00
   0   125    0.107248D-07    0.125310D-01    0.130194D-04    0.421088D+00
   0   126    0.306564D-08    0.834009D-02    0.271363D-05    0.421209D+00
   0   127    0.854602D-09    0.551615D-02    0.426234D-06    0.421290D+00
   0   128    0.250071D-09    0.362854D-02    0.172174D-06    0.421344D+00
   0   129    0.800822D-10    0.237556D-02    0.764623D-07    0.421380D+00
   0   130    0.246012D-10    0.154883D-02    0.311213D-07    0.421403D+00
   0   131    0.745100D-11    0.100617D-02    0.916026D-08    0.421419D+00
   0   132    0.228599D-11    0.651584D-03    0.544818D-09    0.421429D+00
   0   133    0.637311D-12    0.420794D-03    0.819323D-09    0.421435D+00
   0   134    0.190532D-12    0.271093D-03    0.411540D-10    0.421439D+00
   0   135    0.536137D-13    0.174279D-03    0.707105D-10    0.421442D+00
   0   136    0.156386D-13    0.111831D-03    0.116603D-10    0.421444D+00
   0   137    0.443884D-14    0.716417D-04    0.491347D-11    0.421445D+00
   0   138    0.122619D-14    0.458292D-04    0.171538D-11    0.421446D+00
   0   139    0.339002D-15    0.292796D-04    0.905372D-13    0.421446D+00
   0   140    0.932416D-16    0.186852D-04    0.366686D-13    0.421446D+00
   0   141    0.251120D-16    0.119124D-04    0.173328D-13    0.421447D+00
   0   142    0.653350D-17    0.758789D-05    0.589563D-14    0.421447D+00
   0   143    0.172985D-17    0.482950D-05    0.133359D-14    0.421447D+00
   0   144    0.446758D-18    0.307173D-05    0.481393D-15    0.421447D+00
   0   145    0.118193D-18    0.195253D-05    0.132563D-15    0.421447D+00
   0   146    0.311804D-19    0.124044D-05    0.201059D-16    0.421447D+00
   0   147    0.820951D-20    0.787669D-06    0.592080D-17    0.421447D+00
   0   148    0.206480D-20    0.499946D-06    0.224775D-17    0.421447D+00
   0   149    0.529875D-21    0.317201D-06    0.311447D-18    0.421447D+00
   0   150    0.136853D-21    0.201185D-06    0.118835D-18    0.421447D+00
   0   151    0.351006D-22    0.127562D-06    0.413804D-19    0.421447D+00
   0   152    0.872794D-23    0.808590D-07    0.415652D-20    0.421447D+00
   0   153    0.223994D-23    0.512419D-07    0.123918D-20    0.421447D+00
   0   154    0.559604D-24    0.324657D-07    0.168940D-21    0.421447D+00
   0   155    0.136399D-24    0.205653D-07    0.137576D-21    0.421447D+00
   0   156    0.339482D-25    0.130246D-07    0.391223D-22    0.421447D+00
   0   157    0.839995D-26    0.824751D-08    0.615091D-23    0.421447D+00
   0   158    0.207215D-26    0.522171D-08    0.789498D-24    0.421447D+00
   0   159    0.521001D-27    0.330553D-08    0.194839D-24    0.421447D+00
   0   160    0.127047D-27    0.209225D-08    0.153995D-24    0.421447D+00
   0   161    0.311834D-28    0.132414D-08    0.335451D-25    0.421447D+00
   0   162    0.786203D-29    0.837927D-09    0.521934D-26    0.421447D+00
   0   163    0.185463D-29    0.530193D-09    0.230312D-26    0.421447D+00
   0   164    0.460220D-30    0.335443D-09    0.566874D-27    0.421447D+00
   0   165    0.107008D-30    0.212210D-09    0.112408D-27    0.421447D+00
   0   166    0.262884D-31    0.134238D-09    0.119298D-28    0.421447D+00
   0   167    0.646678D-32    0.849082D-10    0.187915D-29    0.421447D+00
   0   168    0.158278D-32    0.537021D-10    0.125672D-29    0.421447D+00
   0   169    0.388221D-33    0.339626D-10    0.235249D-30    0.421447D+00
   0   170    0.940992D-34    0.214773D-10    0.100288D-30    0.421447D+00
   0   171    0.224840D-34    0.135810D-10    0.133286D-31    0.421447D+00
   0   172    0.548553D-35    0.858721D-11    0.192932D-32    0.421447D+00
   0   173    0.128898D-35    0.542931D-11    0.534340D-33    0.421447D+00
   0   174    0.304672D-36    0.343249D-11    0.268136D-33    0.421447D+00
   0   175    0.726172D-37    0.216992D-11    0.933840D-34    0.421447D+00
   0   176    0.174505D-37    0.137167D-11    0.153783D-34    0.421447D+00
   0   177    0.407719D-38    0.867012D-12    0.627628D-35    0.421447D+00
   0   178    0.985232D-39    0.547984D-12    0.112343D-35    0.421447D+00
   0   179    0.237864D-39    0.346319D-12    0.179191D-36    0.421447D+00
   0   180    0.593921D-40    0.218850D-12    0.300160D-37    0.421447D+00
   0   181    0.142420D-40    0.138286D-12    0.159660D-37    0.421447D+00
   0   182    0.343230D-41    0.873702D-13    0.437406D-38    0.421447D+00
   0   183    0.807883D-42    0.551951D-13    0.362147D-39    0.421447D+00
   0   184    0.186972D-42    0.348646D-13    0.127246D-39    0.421447D+00
   0   185    0.459429D-43    0.220195D-13    0.522483D-40    0.421447D+00
   0   186    0.111151D-43    0.139048D-13    0.129058D-40    0.421447D+00
   0   187    0.257939D-44    0.877911D-14    0.332374D-41    0.421447D+00
   0   188    0.619444D-45    0.554184D-14    0.613508D-42    0.421447D+00
   0   189    0.148148D-45    0.349758D-14    0.141242D-42    0.421447D+00
   0   190    0.347721D-46    0.220690D-14    0.484044D-43    0.421447D+00
   0   191    0.832113D-47    0.139215D-14    0.595321D-44    0.421447D+00
   0   192    0.188562D-47    0.877956D-15    0.141135D-44    0.421447D+00
   0   193    0.457802D-48    0.553512D-15    0.139103D-45    0.421447D+00
   0   194    0.111549D-48    0.348850D-15    0.521392D-46    0.421447D+00
   0   195    0.267414D-49    0.219783D-15    0.210445D-46    0.421447D+00
   0   196    0.626126D-50    0.138415D-15    0.606713D-47    0.421447D+00
   0   197    0.146688D-50    0.871341D-16    0.221159D-47    0.421447D+00
   0   198    0.354034D-51    0.548274D-16    0.443975D-48    0.421447D+00
   0   199    0.838433D-52    0.344824D-16    0.543010D-49    0.421447D+00
   0   200    0.200660D-52    0.216756D-16    0.231474D-49    0.421447D+00
   0   201    0.482929D-53    0.136177D-16    0.355996D-50    0.421447D+00
   0   202    0.112510D-53    0.855036D-17    0.139248D-50    0.421447D+00
   0   203    0.272784D-54    0.536528D-17    0.935950D-52    0.421447D+00
   0   204    0.653093D-55    0.336446D-17    0.469532D-52    0.421447D+00
   0   205    0.156882D-55    0.210831D-17    0.219832D-52    0.421447D+00
   0   206    0.368209D-56    0.132020D-17    0.508984D-53    0.421447D+00
   0   207    0.861988D-57    0.826055D-18    0.793089D-54    0.421447D+00
   0   208    0.205693D-57    0.516453D-18    0.208843D-54    0.421447D+00
   0   209    0.474488D-58    0.322618D-18    0.374688D-55    0.421447D+00
   0   210    0.112695D-58    0.201358D-18    0.400370D-56    0.421447D+00
   0   211    0.264965D-59    0.125561D-18    0.229626D-56    0.421447D+00
   0   212    0.617940D-60    0.782221D-19    0.660721D-57    0.421447D+00
   0   213    0.148723D-60    0.486836D-19    0.383117D-58    0.421447D+00
   0   214    0.343445D-61    0.302690D-19    0.215497D-58    0.421447D+00
   0   215    0.816457D-62    0.188002D-19    0.111586D-58    0.421447D+00
   0   216    0.193827D-62    0.116643D-19    0.270774D-59    0.421447D+00
   0   217    0.464609D-63    0.722904D-20    0.228997D-60    0.421447D+00
   0   218    0.107506D-63    0.447517D-20    0.117850D-60    0.421447D+00
   0   219    0.257392D-64    0.276716D-20    0.182378D-61    0.421447D+00
   0   220    0.602076D-65    0.170901D-20    0.795921D-62    0.421447D+00
   0   221    0.140499D-65    0.105420D-20    0.614877D-63    0.421447D+00
   0   222    0.333624D-66    0.649482D-21    0.276345D-63    0.421447D+00
   0   223    0.808678D-67    0.399631D-21    0.403613D-64    0.421447D+00
   0   224    0.185464D-67    0.245578D-21    0.248122D-64    0.421447D+00
   0   225    0.453262D-68    0.150713D-21    0.526003D-65    0.421447D+00
   0   226    0.106377D-68    0.923696D-22    0.516349D-66    0.421447D+00
   0   227    0.253162D-69    0.565351D-22    0.126669D-66    0.421447D+00
   0   228    0.584296D-70    0.345547D-22    0.553033D-67    0.421447D+00
   0   229    0.137583D-70    0.210906D-22    0.199735D-67    0.421447D+00
   0   230    0.322971D-71    0.128545D-22    0.249256D-68    0.421447D+00
   0   231    0.787803D-72    0.782340D-23    0.101698D-68    0.421447D+00
   0   232    0.182535D-72    0.475450D-23    0.273792D-69    0.421447D+00
   0   233    0.426811D-73    0.288519D-23    0.467289D-70    0.421447D+00
   0   234    0.100082D-73    0.174823D-23    0.105360D-70    0.421447D+00
   0   235    0.234628D-74    0.105771D-23    0.270446D-71    0.421447D+00
   0   236    0.560010D-75    0.638968D-24    0.213552D-72    0.421447D+00
   0   237    0.132801D-75    0.385411D-24    0.146618D-72    0.421447D+00
   0   238    0.318582D-76    0.232113D-24    0.251782D-73    0.421447D+00
   0   239    0.738554D-77    0.139571D-24    0.532822D-74    0.421447D+00
   0   240    0.176971D-77    0.837938D-25    0.200409D-74    0.421447D+00
   0   241    0.408907D-78    0.502274D-25    0.127901D-75    0.421447D+00
   0   242    0.928878D-79    0.300592D-25    0.710246D-76    0.421447D+00
   0   243    0.219878D-79    0.179605D-25    0.233453D-76    0.421447D+00
   0   244    0.512457D-80    0.107142D-25    0.761375D-77    0.421447D+00
   0   245    0.120684D-80    0.638107D-26    0.801041D-78    0.421447D+00
   0   246    0.282939D-81    0.379420D-26    0.261628D-78    0.421447D+00
   0   247    0.671457D-82    0.225235D-26    0.249853D-79    0.421447D+00
   0   248    0.160991D-82    0.133485D-26    0.104260D-79    0.421447D+00
   0   249    0.369033D-83    0.789793D-27    0.236284D-80    0.421447D+00
   0   250    0.849907D-84    0.466521D-27    0.906166D-81    0.421447D+00
   0   251    0.203952D-84    0.275108D-27    0.134327D-81    0.421447D+00
   0   252    0.478211D-85    0.161960D-27    0.531394D-82    0.421447D+00
   0   253    0.114102D-85    0.951878D-28    0.137167D-82    0.421447D+00
   0   254    0.263703D-86    0.558498D-28    0.337357D-83    0.421447D+00
   0   255    0.612038D-87    0.327134D-28    0.720844D-84    0.421447D+00
   0   256    0.151498D-87    0.191290D-28    0.174770D-84    0.421447D+00
   0   257    0.360996D-88    0.111666D-28    0.337551D-85    0.421447D+00
   0   258    0.824925D-89    0.650736D-29    0.593737D-86    0.421447D+00
   0   259    0.193870D-89    0.378569D-29    0.621689D-87    0.421447D+00
   0   260    0.465533D-90    0.219857D-29    0.189487D-87    0.421447D+00
   0   261    0.107599D-90    0.127464D-29    0.941152D-88    0.421447D+00
   0   262    0.253244D-91    0.737712D-30    0.310846D-88    0.421447D+00
   0   263    0.594768D-92    0.426221D-30    0.493684D-89    0.421447D+00
   0   264    0.138230D-92    0.245828D-30    0.157883D-89    0.421447D+00
   0   265    0.320486D-93    0.141538D-30    0.188895D-90    0.421447D+00
   0   266    0.764435D-94    0.813508D-31    0.580648D-91    0.421447D+00
   0   267    0.176092D-94    0.466761D-31    0.174550D-91    0.421447D+00
   0   268    0.419378D-95    0.267344D-31    0.204616D-92    0.421447D+00
   0   269    0.943113D-96    0.152858D-31    0.558069D-93    0.421447D+00
   0   270    0.223360D-96    0.872465D-32    0.137205D-93    0.421447D+00
   0   271    0.519069D-97    0.497105D-32    0.473266D-94    0.421447D+00
   0   272    0.121547D-97    0.282740D-32    0.651688D-95    0.421447D+00
   0   273    0.290639D-98    0.160533D-32    0.151650D-95    0.421447D+00
   0   274    0.663482D-99    0.909875D-33    0.920181D-96    0.421447D+00
   0   275    0.154292D-99    0.514796D-33    0.194564D-96    0.421447D+00
   0   276    0.359068-100    0.290754D-33    0.324763D-97    0.421447D+00
   0   277    0.852070-101    0.163928D-33    0.320765D-98    0.421447D+00
   0   278    0.199663-101    0.922604D-34    0.104830D-98    0.421447D+00
   0   279    0.473660-102    0.518338D-34    0.545222D-99    0.421447D+00
   0   280    0.112636-102    0.290701D-34    0.735596-100    0.421447D+00
   0   281    0.266424-103    0.162747D-34    0.224403-100    0.421447D+00
   0   282    0.627635-104    0.909526D-35    0.516124-101    0.421447D+00
   0   283    0.152085-104    0.507400D-35    0.176346-101    0.421447D+00
   0   284    0.351286-105    0.282566D-35    0.420304-102    0.421447D+00
   0   285    0.823597-106    0.157081D-35    0.715317-103    0.421447D+00
   0   286    0.197121-106    0.871683D-36    0.274186-103    0.421447D+00
   0   287    0.453550-107    0.482867D-36    0.634714-104    0.421447D+00
   0   288    0.110100-107    0.267011D-36    0.497654-105    0.421447D+00
   0   289    0.256816-108    0.147389D-36    0.292181-105    0.421447D+00
   0   290    0.606448-109    0.812142D-37    0.707471-106    0.421447D+00
   0   291    0.140578-109    0.446717D-37    0.509592-107    0.421447D+00
   0   292    0.326046-110    0.245282D-37    0.419360-107    0.421447D+00
   0   293    0.757991-111    0.134441D-37    0.899556-108    0.421447D+00
   0   294    0.178256-111    0.735579D-38    0.172594-108    0.421447D+00
   0   295    0.432228-112    0.401754D-38    0.467893-109    0.421447D+00
   0   296    0.103156-112    0.219041D-38    0.118417-109    0.421447D+00
   0   297    0.238055-113    0.119212D-38    0.168824-110    0.421447D+00
   0   298    0.584211-114    0.647667D-39    0.492308-111    0.421447D+00
   0   299    0.134826-114    0.351249D-39    0.959219-112    0.421447D+00
   0   300    0.313781-115    0.190157D-39    0.217260-112    0.421447D+00
   0   301    0.747891-116    0.102764D-39    0.451202-113    0.421447D+00
   0   302    0.176378-116    0.554378D-40    0.804834-114    0.421447D+00
   0   303    0.408792-117    0.298541D-40    0.172736-114    0.421447D+00
   0   304    0.961430-118    0.160486D-40    0.115019-114    0.421447D+00
   0   305    0.224571-118    0.861197D-41    0.318204-115    0.421447D+00
   0   306    0.539121-119    0.461321D-41    0.744102-116    0.421447D+00
   0   307    0.124799-119    0.246683D-41    0.798418-117    0.421447D+00
   0   308    0.291395-120    0.131677D-41    0.345481-117    0.421447D+00
   0   309    0.682296-121    0.701644D-42    0.552930-118    0.421447D+00
   0   310    0.159785-121    0.373215D-42    0.131532-118    0.421447D+00
   0   311    0.383279-122    0.198170D-42    0.296906-119    0.421447D+00
   0   312    0.892074-123    0.105039D-42    0.305367-120    0.421447D+00
   0   313    0.207695-123    0.555780D-43    0.264628-120    0.421447D+00
   0   314    0.498903-124    0.293556D-43    0.164524-121    0.421447D+00
   0   315    0.116673-124    0.154781D-43    0.110641-121    0.421447D+00
   0   316    0.265483-125    0.814668D-44    0.333591-122    0.421447D+00
   0   317    0.631016-126    0.428038D-44    0.810393-123    0.421447D+00
   0   318    0.147572-126    0.224503D-44    0.192778-123    0.421447D+00
   0   319    0.344776-127    0.117544D-44    0.155319-124    0.421447D+00
   0   320    0.786002-128    0.614356D-45    0.384003-125    0.421447D+00
   0   321    0.181809-128    0.320537D-45    0.156666-125    0.421447D+00
   0   322    0.435802-129    0.166946D-45    0.265306-126    0.421447D+00
   0   323    0.982463-130    0.867991D-46    0.883341-127    0.421447D+00
   0   324    0.227921-130    0.450500D-46    0.952955-128    0.421447D+00
   0   325    0.527817-131    0.233408D-46    0.208473-128    0.421447D+00
   0   326    0.121899-131    0.120720D-46    0.160913-128    0.421447D+00
   0   327    0.282350-132    0.623283D-47    0.384615-129    0.421447D+00
   0   328    0.649179-133    0.321243D-47    0.406726-130    0.421447D+00
   0   329    0.150610-133    0.165282D-47    0.149591-130    0.421447D+00
   0   330    0.337998-134    0.848907D-48    0.380106-131    0.421447D+00
   0   331    0.795508-135    0.435251D-48    0.355945-132    0.421447D+00
   0   332    0.186884-135    0.222774D-48    0.171678-132    0.421447D+00
   0   333    0.418092-136    0.113824D-48    0.229845-133    0.421447D+00
   0   334    0.962812-137    0.580561D-49    0.305188-134    0.421447D+00
   0   335    0.218494-137    0.295603D-49    0.209173-134    0.421447D+00
   0   336    0.504468-138    0.150251D-49    0.437928-135    0.421447D+00
   0   337    0.114325-138    0.762381D-50    0.639127-136    0.421447D+00
   0   338    0.252735-139    0.386167D-50    0.305050-136    0.421447D+00
   0   339    0.570871-140    0.195266D-50    0.741452-137    0.421447D+00
   0   340    0.128602-140    0.985657D-51    0.906294-138    0.421447D+00
   0   341    0.287747-141    0.496678D-51    0.143217-138    0.421447D+00
   0   342    0.655043-142    0.249847D-51    0.513138-139    0.421447D+00
   0   343    0.146005-142    0.125465D-51    0.113863-139    0.421447D+00
   0   344    0.330905-143    0.628959D-52    0.386900-140    0.421447D+00
   0   345    0.760388-144    0.314756D-52    0.495163-141    0.421447D+00
   0   346    0.174531-144    0.157245D-52    0.211539-141    0.421447D+00
   0   347    0.376389-145    0.784210D-53    0.426035-142    0.421447D+00
   0   348    0.840457-146    0.390428D-53    0.452611-143    0.421447D+00
   0   349    0.189609-146    0.194046D-53    0.275062-143    0.421447D+00
   0   350    0.408189-147    0.962765D-54    0.585449-144    0.421447D+00
   0   351    0.940210-148    0.476861D-54    0.373375-145    0.421447D+00
   0   352    0.200505-148    0.235786D-54    0.215748-145    0.421447D+00
   0   353    0.444294-149    0.116386D-54    0.421899-146    0.421447D+00
   0   354    0.984945-150    0.573507D-55    0.558917-147    0.421447D+00
   0   355    0.218917-150    0.282120D-55    0.287131-147    0.421447D+00
   0   356    0.490296-151    0.138544D-55    0.566373-148    0.421447D+00
   0   357    0.109874-151    0.679202D-56    0.965544-149    0.421447D+00
   0   358    0.242741-152    0.332406D-56    0.354715-149    0.421447D+00
   0   359    0.539294-153    0.162405D-56    0.817803-150    0.421447D+00
   0   360    0.115793-153    0.792113D-57    0.122363-150    0.421447D+00
   0   361    0.249880-154    0.385689D-57    0.313439-151    0.421447D+00
   0   362    0.525074-155    0.187477D-57    0.439697-152    0.421447D+00
   0   363    0.111401-155    0.909745D-58    0.175502-152    0.421447D+00
   0   364    0.243145-156    0.440711D-58    0.282956-153    0.421447D+00
   0   365    0.530590-157    0.213133D-58    0.800088-154    0.421447D+00
   0   366    0.114111-157    0.102899D-58    0.149895-154    0.421447D+00
   0   367    0.246225-158    0.495948D-59    0.255827-155    0.421447D+00
   0   368    0.516666-159    0.238630D-59    0.437826-156    0.421447D+00
   0   369    0.111347-159    0.114625D-59    0.169089-156    0.421447D+00
   0   370    0.238642-160    0.549667D-60    0.294182-157    0.421447D+00
   0   371    0.512742-161    0.263140D-60    0.358054-158    0.421447D+00
   0   372    0.108306-161    0.125759D-60    0.659593-159    0.421447D+00
   0   373    0.230611-162    0.600014D-61    0.355824-159    0.421447D+00
   0   374    0.488924-163    0.285792D-61    0.438479-160    0.421447D+00
   0   375    0.101197-163    0.135897D-61    0.123858-160    0.421447D+00
   0   376    0.213972-164    0.645113D-62    0.313106-161    0.421447D+00
   0   377    0.461717-165    0.305727D-62    0.430677-162    0.421447D+00
   0   378    0.957985-166    0.144644D-62    0.122978-162    0.421447D+00
   0   379    0.202968-166    0.683190D-63    0.142807-163    0.421447D+00
   0   380    0.417781-167    0.322146D-63    0.515328-164    0.421447D+00
   0   381    0.883253-168    0.151648D-63    0.103630-164    0.421447D+00
   0   382    0.178545-168    0.712678D-64    0.170835-165    0.421447D+00
   0   383    0.361066-169    0.334367D-64    0.227127-166    0.421447D+00
   0   384    0.755905-170    0.156613D-64    0.826799-167    0.421447D+00
   0   385    0.160777-170    0.732334D-65    0.101488-167    0.421447D+00
   0   386    0.334808-171    0.341873D-65    0.310123-168    0.421447D+00
   0   387    0.688471-172    0.159330D-65    0.119827-168    0.421447D+00
   0   388    0.139895-172    0.741319D-66    0.230710-169    0.421447D+00
   0   389    0.291960-173    0.344343D-66    0.234116-170    0.421447D+00
   0   390    0.593242-174    0.159682D-66    0.828258-171    0.421447D+00
   0   391    0.122170-174    0.739261D-67    0.201144-171    0.421447D+00
   0   392    0.242347-175    0.341679D-67    0.293531-172    0.421447D+00
   0   393    0.508055-176    0.157658D-67    0.523427-173    0.421447D+00
   0   394    0.102581-176    0.726223D-68    0.114404-173    0.421447D+00
   0   395    0.211067-177    0.333888D-68    0.339730-174    0.421447D+00
   0   396    0.429520-178    0.153075D-68    0.705145-175    0.421447D+00
   0   397    0.880562-179    0.696680D-69    0.131208-175    0.421447D+00