variables =  "IG"  "JG"  "PHI"  "Temp."  "Latent_heat"  "mm"
ZONE  I=  401  J=  101
   0     0    0.100000D+01    0.939116D+00    0.000000D+00    0.156676D+00
   0     1    0.100000D+01    0.939116D+00    0.000000D+00    0.156676D+00
   0     2    0.100000D+01    0.939222D+00    0.000000D+00    0.156454D+00
   0     3    0.100000D+01    0.939434D+00    0.000000D+00    0.156010D+00
   0     4    0.100000D+01    0.939752D+00    0.000000D+00    0.155344D+00
   0     5    0.100000D+01    0.940174D+00    0.000000D+00    0.154455D+00
   0     6    0.100000D+01    0.940700D+00    0.000000D+00    0.153341D+00
   0     7    0.100000D+01    0.941330D+00    0.000000D+00    0.152003D+00
   0     8    0.100000D+01    0.942062D+00    0.000000D+00    0.150438D+00
   0     9    0.100000D+01    0.942895D+00    0.000000D+00    0.148646D+00
   0    10    0.100000D+01    0.943827D+00    0.000000D+00    0.146624D+00
   0    11    0.100000D+01    0.944857D+00    0.000000D+00    0.144371D+00
   0    12    0.100000D+01    0.945983D+00    0.000000D+00    0.141885D+00
   0    13    0.100000D+01    0.947203D+00    0.000000D+00    0.139165D+00
   0    14    0.100000D+01    0.948516D+00    0.000000D+00    0.136208D+00
   0    15    0.100000D+01    0.949919D+00    0.000000D+00    0.133013D+00
   0    16    0.100000D+01    0.951410D+00    0.000000D+00    0.129578D+00
   0    17    0.100000D+01    0.952987D+00    0.000000D+00    0.125901D+00
   0    18    0.100000D+01    0.954647D+00    0.000000D+00    0.121980D+00
   0    19    0.100000D+01    0.956388D+00    0.000000D+00    0.117816D+00
   0    20    0.100000D+01    0.958209D+00    0.000000D+00    0.113405D+00
   0    21    0.100000D+01    0.960105D+00    0.000000D+00    0.108748D+00
   0    22    0.100000D+01    0.962077D+00    0.000000D+00    0.103844D+00
   0    23    0.100000D+01    0.964120D+00    0.000000D+00    0.986908D-01
   0    24    0.100000D+01    0.966235D+00    0.000000D+00    0.932883D-01
   0    25    0.100000D+01    0.968419D+00    0.000000D+00    0.876343D-01
   0    26    0.100000D+01    0.970673D+00    0.000000D+00    0.817262D-01
   0    27    0.100000D+01    0.972996D+00    0.932587D-10    0.755593D-01
   0    28    0.100000D+01    0.975391D+00    0.106581D-09    0.691261D-01
   0    29    0.100000D+01    0.977862D+00    0.101519D-07    0.624150D-01
   0    30    0.100000D+01    0.980414D+00   -0.177725D-07    0.554082D-01
   0    31    0.100000D+01    0.983058D+00    0.198375D-06    0.480796D-01
   0    32    0.100000D+01    0.985807D+00    0.822835D-06    0.403910D-01
   0    33    0.100000D+01    0.988682D+00    0.825176D-05    0.322881D-01
   0    34    0.100000D+01    0.991711D+00   -0.372711D-05    0.236938D-01
   0    35    0.999998D+00    0.994935D+00   -0.676377D-04    0.144987D-01
   0    36    0.999991D+00    0.998414D+00    0.211330D-02    0.454314D-02
   0    37    0.999943D+00    0.100224D+01    0.354911D-01   -0.641631D-02
   0    38    0.999653D+00    0.100655D+01    0.157805D+00   -0.187468D-01
   0    39    0.997969D+00    0.101153D+01    0.700324D+00   -0.329074D-01
   0    40    0.988075D+00    0.101723D+01   -0.349991D+01   -0.489767D-01
   0    41    0.932815D+00    0.102454D+01    0.251703D+02   -0.681543D-01
   0    42    0.679552D+00    0.103211D+01    0.120771D+03   -0.902383D-01
   0    43    0.171289D+00    0.103216D+01    0.458836D+02   -0.872564D-01
   0    44    0.393098D-01    0.102655D+01    0.150687D+01   -0.740517D-01
   0    45    0.133451D-01    0.102126D+01    0.120224D+01   -0.604469D-01
   0    46    0.776172D-02    0.101806D+01    0.118265D+01   -0.515493D-01
   0    47    0.753112D-02    0.101451D+01    0.131894D+01   -0.415184D-01
   0    48    0.852350D-02    0.101183D+01    0.370609D+01   -0.335727D-01
   0    49    0.953936D-02    0.100967D+01    0.475293D+01   -0.273087D-01
   0    50    0.988943D-02    0.100786D+01    0.451107D+01   -0.224703D-01
   0    51    0.105299D-01    0.100634D+01    0.174393D+01   -0.181889D-01
   0    52    0.103750D-01    0.100522D+01   -0.438915D+01   -0.142888D-01
   0    53    0.108590D-01    0.100475D+01   -0.558100D+01   -0.135453D-01
   0    54    0.113235D-01    0.100441D+01   -0.299834D+01   -0.123282D-01
   0    55    0.115231D-01    0.100370D+01    0.134043D+01   -0.996783D-02
   0    56    0.115426D-01    0.100303D+01    0.181626D+01   -0.848913D-02
   0    57    0.120243D-01    0.100207D+01   -0.215554D+01   -0.545644D-02
   0    58    0.122823D-01    0.100204D+01    0.640798D+01   -0.607667D-02
   0    59    0.123642D-01    0.100275D+01    0.352849D+01   -0.803682D-02
   0    60    0.126504D-01    0.100091D+01   -0.304940D+01   -0.265726D-02
   0    61    0.126086D-01    0.100090D+01   -0.532947D+01   -0.225939D-02
   0    62    0.127576D-01    0.100051D+01   -0.347381D+01   -0.135744D-02
   0    63    0.128342D-01    0.999633D+00   -0.287981D+01    0.513409D-03
   0    64    0.131821D-01    0.999692D+00    0.120926D+01    0.179170D-03
   0    65    0.132950D-01    0.999227D+00    0.661146D+01    0.181527D-02
   0    66    0.133067D-01    0.999490D+00    0.136884D+00    0.115773D-02
   0    67    0.136849D-01    0.100010D+01    0.685576D+01   -0.414005D-03
   0    68    0.138976D-01    0.100037D+01   -0.381832D+01   -0.741811D-03
   0    69    0.139580D-01    0.100029D+01   -0.365172D+01   -0.649072D-03
   0    70    0.143520D-01    0.999308D+00   -0.178581D+01    0.147849D-02
   0    71    0.140700D-01    0.998776D+00   -0.575607D+00    0.366587D-02
   0    72    0.143207D-01    0.998326D+00    0.164068D+01    0.514414D-02
   0    73    0.144737D-01    0.997884D+00    0.683914D+01    0.568894D-02
   0    74    0.142310D-01    0.996512D+00   -0.422284D+01    0.929768D-02
   0    75    0.149296D-01    0.997114D+00   -0.545954D+01    0.865573D-02
   0    76    0.148007D-01    0.997110D+00   -0.336434D+01    0.855350D-02
   0    77    0.148648D-01    0.996914D+00   -0.239416D+01    0.859114D-02
   0    78    0.151197D-01    0.997817D+00    0.207622D+01    0.690809D-02
   0    79    0.146177D-01    0.998547D+00    0.624617D+01    0.445854D-02
   0    80    0.147485D-01    0.998576D+00    0.434034D+01    0.366549D-02
   0    81    0.151349D-01    0.997250D+00    0.510477D+00    0.810196D-02
   0    82    0.154670D-01    0.996171D+00   -0.855173D+01    0.105236D-01
   0    83    0.152856D-01    0.996192D+00    0.421221D+01    0.104433D-01
   0    84    0.149771D-01    0.995531D+00    0.290138D+01    0.129526D-01
   0    85    0.152871D-01    0.997073D+00    0.790369D+01    0.781011D-02
   0    86    0.152447D-01    0.996371D+00    0.486596D+01    0.994026D-02
   0    87    0.152677D-01    0.994906D+00   -0.106023D+01    0.141895D-01
   0    88    0.150975D-01    0.995412D+00   -0.914459D+00    0.126662D-01
   0    89    0.153813D-01    0.996365D+00    0.351927D+01    0.975768D-02
   0    90    0.155114D-01    0.996294D+00   -0.832793D+01    0.100611D-01
   0    91    0.157133D-01    0.997550D+00    0.868156D+01    0.672085D-02
   0    92    0.153392D-01    0.996881D+00    0.224221D+00    0.825162D-02
   0    93    0.154133D-01    0.997575D+00   -0.142024D+01    0.723526D-02
   0    94    0.155737D-01    0.997603D+00   -0.121954D+01    0.743275D-02
   0    95    0.153840D-01    0.996709D+00   -0.143963D+01    0.949438D-02
   0    96    0.154715D-01    0.996061D+00    0.537536D+01    0.106795D-01
   0    97    0.147689D-01    0.994727D+00   -0.260785D+01    0.148646D-01
   0    98    0.156929D-01    0.995680D+00    0.290517D+01    0.126053D-01
   0    99    0.156508D-01    0.996831D+00    0.568615D+01    0.933751D-02
   0   100    0.155087D-01    0.995678D+00   -0.721349D+00    0.118779D-01
   0   101    0.153845D-01    0.995625D+00   -0.556265D+01    0.125743D-01
   0   102    0.154217D-01    0.995918D+00    0.795183D+01    0.115362D-01
   0   103    0.154917D-01    0.996028D+00    0.673796D+01    0.111024D-01
   0   104    0.152304D-01    0.995226D+00    0.637297D+01    0.132450D-01
   0   105    0.154925D-01    0.994988D+00   -0.876442D+01    0.137876D-01
   0   106    0.154401D-01    0.995903D+00   -0.799451D+01    0.123282D-01
   0   107    0.155368D-01    0.996430D+00    0.178186D+01    0.105428D-01
   0   108    0.152344D-01    0.996776D+00    0.551148D+00    0.878953D-02
   0   109    0.154093D-01    0.997781D+00    0.733900D+01    0.575409D-02
   0   110    0.159010D-01    0.996917D+00    0.311038D+01    0.853135D-02
   0   111    0.162023D-01    0.995274D+00   -0.105774D+02    0.132562D-01
   0   112    0.156508D-01    0.996088D+00    0.568145D+01    0.103649D-01
   0   113    0.159743D-01    0.995656D+00   -0.839798D+01    0.120732D-01
   0   114    0.156190D-01    0.996317D+00    0.521374D+01    0.106377D-01
   0   115    0.153283D-01    0.996168D+00    0.466484D+01    0.113477D-01
   0   116    0.156182D-01    0.996342D+00   -0.395042D+01    0.104397D-01
   0   117    0.156521D-01    0.995610D+00    0.748531D+01    0.127349D-01
   0   118    0.156731D-01    0.994834D+00   -0.323914D+01    0.144293D-01
   0   119    0.155386D-01    0.996880D+00    0.176963D+01    0.913315D-02
   0   120    0.156522D-01    0.995593D+00   -0.293732D+01    0.127885D-01
   0   121    0.155733D-01    0.994269D+00   -0.502517D+01    0.157894D-01
   0   122    0.158177D-01    0.995194D+00    0.300131D+01    0.133564D-01
   0   123    0.156426D-01    0.996344D+00    0.355619D+00    0.102057D-01
   0   124    0.150312D-01    0.996336D+00   -0.147605D+01    0.112954D-01
   0   125    0.151761D-01    0.995523D+00   -0.668524D+01    0.124845D-01
   0   126    0.155190D-01    0.995279D+00    0.244961D+01    0.141222D-01
   0   127    0.161710D-01    0.995687D+00    0.269875D+01    0.118067D-01
   0   128    0.155533D-01    0.996023D+00   -0.208713D+01    0.118940D-01
   0   129    0.157224D-01    0.995242D+00   -0.581667D+00    0.138173D-01
   0   130    0.152117D-01    0.996112D+00   -0.735525D+01    0.113219D-01
   0   131    0.155439D-01    0.996350D+00    0.483145D+01    0.102351D-01
   0   132    0.156121D-01    0.996460D+00    0.708931D+01    0.974188D-02
   0   133    0.159954D-01    0.995674D+00   -0.728491D+00    0.115314D-01
   0   134    0.155467D-01    0.995922D+00   -0.730353D+01    0.120859D-01
   0   135    0.153151D-01    0.996811D+00   -0.292214D+01    0.953895D-02
   0   136    0.157909D-01    0.997154D+00   -0.164061D+01    0.789189D-02
   0   137    0.153473D-01    0.997678D+00   -0.241236D+01    0.728829D-02
   0   138    0.152576D-01    0.996446D+00    0.398835D+01    0.952106D-02
   0   139    0.150310D-01    0.996569D+00    0.510983D+01    0.101836D-01
   0   140    0.152037D-01    0.995267D+00    0.967913D+00    0.138383D-01
   0   141    0.156169D-01    0.996366D+00   -0.449547D+01    0.109306D-01
   0   142    0.155688D-01    0.996903D+00   -0.208941D+00    0.808887D-02
   0   143    0.152169D-01    0.996798D+00    0.102363D+01    0.920348D-02
   0   144    0.153348D-01    0.995243D+00   -0.624103D+01    0.136473D-01
   0   145    0.158471D-01    0.994885D+00   -0.300438D+01    0.145771D-01
   0   146    0.153567D-01    0.995308D+00   -0.378530D+01    0.133353D-01
   0   147    0.155096D-01    0.996325D+00   -0.785462D+01    0.100189D-01
   0   148    0.155995D-01    0.995893D+00    0.431007D+01    0.116039D-01
   0   149    0.156032D-01    0.996632D+00   -0.476477D+00    0.921337D-02
   0   150    0.157172D-01    0.995961D+00   -0.821394D+01    0.113607D-01
   0   151    0.152429D-01    0.995860D+00   -0.605948D+01    0.120525D-01
   0   152    0.153457D-01    0.996567D+00    0.833601D+01    0.101531D-01
   0   153    0.152726D-01    0.996908D+00   -0.699519D+01    0.899064D-02
   0   154    0.149871D-01    0.995356D+00    0.880955D+01    0.128745D-01
   0   155    0.155978D-01    0.996039D+00    0.487659D+01    0.117815D-01
   0   156    0.156539D-01    0.995931D+00   -0.700216D+01    0.118390D-01
   0   157    0.153457D-01    0.996858D+00   -0.433202D+01    0.972300D-02
   0   158    0.155001D-01    0.997463D+00   -0.819759D+01    0.772363D-02
   0   159    0.154573D-01    0.996257D+00    0.226622D+01    0.105377D-01
   0   160    0.149411D-01    0.997109D+00    0.703646D+01    0.841287D-02
   0   161    0.145473D-01    0.996216D+00   -0.217185D+01    0.112221D-01
   0   162    0.153036D-01    0.996700D+00    0.754012D+01    0.990685D-02
   0   163    0.148802D-01    0.996224D+00    0.757961D+01    0.105216D-01
   0   164    0.150441D-01    0.996891D+00    0.463178D+00    0.855269D-02
   0   165    0.153044D-01    0.996734D+00   -0.276999D+01    0.902474D-02
   0   166    0.153586D-01    0.996959D+00    0.627978D+01    0.792268D-02
   0   167    0.153810D-01    0.997092D+00   -0.345519D+01    0.771000D-02
   0   168    0.154793D-01    0.996942D+00    0.519599D+00    0.805912D-02
   0   169    0.145659D-01    0.997414D+00    0.301700D+01    0.760590D-02
   0   170    0.152326D-01    0.996903D+00   -0.678799D+01    0.825712D-02
   0   171    0.151569D-01    0.997712D+00    0.885047D+01    0.636837D-02
   0   172    0.153221D-01    0.998352D+00    0.802688D+01    0.513373D-02
   0   173    0.150801D-01    0.996556D+00    0.533788D+01    0.103780D-01
   0   174    0.147286D-01    0.997816D+00   -0.672856D+01    0.648779D-02
   0   175    0.149744D-01    0.997184D+00    0.710876D+01    0.782514D-02
   0   176    0.146536D-01    0.997416D+00    0.148502D+01    0.709850D-02
   0   177    0.149149D-01    0.997622D+00    0.498182D+01    0.616259D-02
   0   178    0.150273D-01    0.996952D+00    0.674319D+01    0.879141D-02
   0   179    0.147622D-01    0.996119D+00    0.677932D+01    0.112455D-01
   0   180    0.149118D-01    0.996446D+00   -0.187502D+01    0.108060D-01
   0   181    0.150574D-01    0.996285D+00    0.295131D+01    0.979085D-02
   0   182    0.145882D-01    0.996205D+00   -0.154762D+01    0.107974D-01
   0   183    0.145289D-01    0.997644D+00    0.556954D+01    0.626838D-02
   0   184    0.146373D-01    0.997906D+00    0.849243D+01    0.568282D-02
   0   185    0.149636D-01    0.997873D+00   -0.933488D+00    0.601490D-02
   0   186    0.147935D-01    0.997901D+00   -0.252115D+01    0.563444D-02
   0   187    0.152196D-01    0.997120D+00   -0.407605D+01    0.795739D-02
   0   188    0.147006D-01    0.998090D+00    0.221298D+00    0.462603D-02
   0   189    0.145252D-01    0.998110D+00    0.712176D+01    0.578155D-02
   0   190    0.151075D-01    0.997163D+00    0.328265D+01    0.800695D-02
   0   191    0.153283D-01    0.996307D+00   -0.734419D+01    0.101115D-01
   0   192    0.152108D-01    0.996616D+00    0.635625D+01    0.995535D-02
   0   193    0.147158D-01    0.997232D+00   -0.839716D+01    0.817208D-02
   0   194    0.147628D-01    0.997257D+00    0.343555D+01    0.845914D-02
   0   195    0.149444D-01    0.997417D+00   -0.472982D+01    0.674022D-02
   0   196    0.150542D-01    0.997252D+00   -0.519799D+01    0.729968D-02
   0   197    0.147921D-01    0.997028D+00    0.600878D+01    0.876311D-02
   0   198    0.149470D-01    0.998263D+00   -0.724341D+01    0.486323D-02
   0   199    0.150883D-01    0.997298D+00    0.259658D+01    0.729277D-02
   0   200    0.149350D-01    0.997342D+00    0.620343D+01    0.831076D-02
   0   201    0.149236D-01    0.997004D+00   -0.217499D+01    0.915021D-02
   0   202    0.147787D-01    0.997475D+00    0.486061D+01    0.679514D-02
   0   203    0.147494D-01    0.996729D+00   -0.255906D+01    0.912118D-02
   0   204    0.147482D-01    0.995635D+00   -0.134350D+01    0.118541D-01
   0   205    0.148497D-01    0.995971D+00    0.216592D+01    0.122446D-01
   0   206    0.148988D-01    0.995498D+00    0.808047D+01    0.124544D-01
   0   207    0.146902D-01    0.996955D+00   -0.334577D+01    0.920640D-02
   0   208    0.147695D-01    0.997695D+00    0.592905D+01    0.674967D-02
   0   209    0.146908D-01    0.997940D+00    0.142951D+01    0.504787D-02
   0   210    0.148624D-01    0.997502D+00   -0.539080D+00    0.663402D-02
   0   211    0.146460D-01    0.997055D+00   -0.326025D+01    0.907829D-02
   0   212    0.142560D-01    0.999173D+00   -0.438719D+01    0.247521D-02
   0   213    0.147924D-01    0.998333D+00    0.549785D+01    0.477947D-02
   0   214    0.147026D-01    0.997530D+00    0.533618D+01    0.671542D-02
   0   215    0.141876D-01    0.997929D+00    0.435530D+01    0.572878D-02
   0   216    0.142725D-01    0.996813D+00    0.837735D+01    0.895431D-02
   0   217    0.145479D-01    0.997284D+00   -0.440120D+01    0.791800D-02
   0   218    0.144968D-01    0.996943D+00   -0.306621D+00    0.899842D-02
   0   219    0.142578D-01    0.997103D+00    0.552765D+01    0.766043D-02
   0   220    0.144383D-01    0.998295D+00   -0.228286D+01    0.443517D-02
   0   221    0.144935D-01    0.998275D+00   -0.260177D+01    0.410616D-02
   0   222    0.144541D-01    0.997846D+00   -0.262681D+01    0.557416D-02
   0   223    0.141989D-01    0.997920D+00    0.236750D+01    0.533881D-02
   0   224    0.144643D-01    0.998582D+00    0.399103D+01    0.410607D-02
   0   225    0.139101D-01    0.998024D+00   -0.190029D+01    0.536743D-02
   0   226    0.146235D-01    0.997078D+00    0.714950D+00    0.782453D-02
   0   227    0.148652D-01    0.998607D+00   -0.428314D+01    0.458835D-02
   0   228    0.145911D-01    0.999048D+00   -0.403508D+01    0.195970D-02
   0   229    0.143258D-01    0.997870D+00   -0.718883D+01    0.590038D-02
   0   230    0.144343D-01    0.998920D+00    0.825221D+01    0.290988D-02
   0   231    0.144621D-01    0.999574D+00   -0.526926D+01    0.163591D-02
   0   232    0.144480D-01    0.998289D+00   -0.279388D+01    0.464782D-02
   0   233    0.140276D-01    0.998922D+00    0.479742D+01    0.288973D-02
   0   234    0.140406D-01    0.997741D+00    0.149989D+00    0.721197D-02
   0   235    0.139425D-01    0.997937D+00    0.773513D+01    0.559706D-02
   0   236    0.137218D-01    0.997634D+00    0.384090D+01    0.640866D-02
   0   237    0.146055D-01    0.998348D+00   -0.697836D+01    0.409236D-02
   0   238    0.144374D-01    0.997615D+00    0.427951D+01    0.645002D-02
   0   239    0.142216D-01    0.999072D+00   -0.574604D+01    0.225437D-02
   0   240    0.141680D-01    0.999563D+00    0.261149D+00    0.722210D-03
   0   241    0.143003D-01    0.100040D+01    0.583144D+00   -0.809742D-03
   0   242    0.144903D-01    0.998416D+00    0.168788D+01    0.456560D-02
   0   243    0.141485D-01    0.998423D+00    0.161289D+01    0.476091D-02
   0   244    0.143353D-01    0.997918D+00    0.930579D+00    0.577956D-02
   0   245    0.144731D-01    0.998417D+00    0.475275D+01    0.426110D-02
   0   246    0.141401D-01    0.998780D+00   -0.497177D+01    0.347450D-02
   0   247    0.141939D-01    0.998539D+00   -0.873765D+01    0.369015D-02
   0   248    0.145737D-01    0.998236D+00    0.677898D+01    0.467292D-02
   0   249    0.142940D-01    0.998008D+00   -0.576437D+01    0.596769D-02
   0   250    0.139009D-01    0.998617D+00   -0.366508D+01    0.418828D-02
   0   251    0.138174D-01    0.997779D+00    0.100553D+01    0.578193D-02
   0   252    0.138258D-01    0.997947D+00    0.563795D+01    0.614162D-02
   0   253    0.138285D-01    0.997862D+00   -0.743201D+01    0.623451D-02
   0   254    0.141755D-01    0.997892D+00   -0.371051D+01    0.687343D-02
   0   255    0.140260D-01    0.999602D+00    0.445927D+01    0.138797D-02
   0   256    0.140503D-01    0.998741D+00    0.190367D+01    0.398342D-02
   0   257    0.143559D-01    0.999123D+00    0.548073D+01    0.208439D-02
   0   258    0.141967D-01    0.999067D+00   -0.224029D+01    0.281040D-02
   0   259    0.138068D-01    0.999229D+00    0.657775D+01    0.283839D-02
   0   260    0.137216D-01    0.998562D+00    0.584191D+00    0.353918D-02
   0   261    0.134561D-01    0.998896D+00   -0.260953D+01    0.344821D-02
   0   262    0.135911D-01    0.100002D+01    0.158677D+00    0.655513D-03
   0   263    0.138164D-01    0.998464D+00   -0.700056D+01    0.429260D-02
   0   264    0.136496D-01    0.999706D+00    0.373382D+01    0.147281D-02
   0   265    0.132628D-01    0.999320D+00   -0.270302D+01    0.185159D-02
   0   266    0.138494D-01    0.998824D+00   -0.423682D+01    0.271191D-02
   0   267    0.140750D-01    0.998325D+00   -0.642335D+01    0.421824D-02
   0   268    0.141958D-01    0.999198D+00    0.463709D+01    0.275038D-02
   0   269    0.138225D-01    0.998797D+00   -0.367792D+01    0.321682D-02
   0   270    0.140479D-01    0.998496D+00    0.180392D-01    0.369771D-02
   0   271    0.139431D-01    0.998649D+00    0.304219D+00    0.416870D-02
   0   272    0.136682D-01    0.998239D+00    0.744066D+01    0.438933D-02
   0   273    0.134500D-01    0.998248D+00   -0.479708D+01    0.551201D-02
   0   274    0.136837D-01    0.999039D+00   -0.247916D+01    0.322932D-02
   0   275    0.134711D-01    0.100030D+01    0.179826D+01   -0.574586D-03
   0   276    0.138088D-01    0.999513D+00    0.292896D+01    0.152298D-02
   0   277    0.139105D-01    0.999963D+00   -0.632202D+01   -0.331202D-03
   0   278    0.138423D-01    0.999653D+00    0.802509D+01    0.907600D-03
   0   279    0.133752D-01    0.999368D+00    0.191351D+01    0.216515D-02
   0   280    0.133391D-01    0.999987D+00   -0.558489D+01    0.577958D-03
   0   281    0.135645D-01    0.999925D+00    0.439164D+01    0.298071D-03
   0   282    0.137775D-01    0.999702D+00    0.574863D+01    0.910634D-03
   0   283    0.129782D-01    0.999400D+00    0.336667D+01    0.197999D-02
   0   284    0.131707D-01    0.999706D+00    0.740830D+01    0.960986D-03
   0   285    0.133561D-01    0.100018D+01   -0.173228D+01   -0.205917D-03
   0   286    0.132361D-01    0.999276D+00   -0.219634D+00    0.222223D-02
   0   287    0.132368D-01    0.998957D+00    0.690525D+01    0.249553D-02
   0   288    0.131456D-01    0.999424D+00   -0.646626D+01    0.167861D-02
   0   289    0.135133D-01    0.999859D+00    0.500013D+01    0.628489D-03
   0   290    0.135155D-01    0.999628D+00    0.683691D+01    0.144576D-02
   0   291    0.133961D-01    0.998709D+00    0.718632D+01    0.375409D-02
   0   292    0.132256D-01    0.998835D+00   -0.342962D+01    0.309282D-02
   0   293    0.136113D-01    0.999529D+00   -0.360639D+00    0.166983D-02
   0   294    0.136022D-01    0.999356D+00    0.432058D+01    0.206880D-02
   0   295    0.133733D-01    0.100060D+01    0.878554D+01   -0.201287D-02
   0   296    0.134726D-01    0.998929D+00    0.451309D+01    0.266720D-02
   0   297    0.135750D-01    0.999349D+00   -0.492401D+01    0.227341D-02
   0   298    0.134673D-01    0.999431D+00    0.812686D+01    0.174072D-02
   0   299    0.140891D-01    0.998175D+00    0.647450D+00    0.519285D-02
   0   300    0.136625D-01    0.997488D+00    0.320511D+01    0.719930D-02
   0   301    0.134359D-01    0.998521D+00    0.561140D+01    0.436668D-02
   0   302    0.137908D-01    0.997924D+00    0.517614D+01    0.635552D-02
   0   303    0.137172D-01    0.997576D+00    0.243637D+01    0.688866D-02
   0   304    0.141080D-01    0.997915D+00    0.611327D+01    0.568263D-02
   0   305    0.136593D-01    0.998974D+00    0.419871D+01    0.332445D-02
   0   306    0.138577D-01    0.100032D+01   -0.599473D+01   -0.676236D-03
   0   307    0.143207D-01    0.100098D+01   -0.882741D+01   -0.215931D-02
   0   308    0.135151D-01    0.100060D+01    0.437541D+01   -0.150616D-02
   0   309    0.135947D-01    0.999412D+00   -0.305613D+01    0.203323D-02
   0   310    0.134515D-01    0.999481D+00    0.467668D+01    0.110558D-02
   0   311    0.143524D-01    0.999679D+00   -0.148329D+01    0.503003D-03
   0   312    0.137650D-01    0.100033D+01    0.907050D+00   -0.416958D-03
   0   313    0.141102D-01    0.999893D+00   -0.766639D+01    0.554311D-03
   0   314    0.137977D-01    0.999437D+00   -0.649174D+01    0.210791D-02
   0   315    0.140728D-01    0.998987D+00   -0.536942D+01    0.316960D-02
   0   316    0.139341D-01    0.999274D+00    0.389545D+01    0.186685D-02
   0   317    0.141614D-01    0.997899D+00    0.355046D+01    0.547139D-02
   0   318    0.141461D-01    0.997202D+00   -0.591010D+01    0.847490D-02
   0   319    0.143323D-01    0.996983D+00    0.393248D+01    0.875116D-02
   0   320    0.143918D-01    0.996954D+00    0.659078D+01    0.938405D-02
   0   321    0.143062D-01    0.997303D+00   -0.513462D+00    0.804702D-02
   0   322    0.149042D-01    0.996746D+00    0.382124D+01    0.965218D-02
   0   323    0.146042D-01    0.996374D+00   -0.479532D+01    0.101758D-01
   0   324    0.145401D-01    0.995758D+00   -0.258515D+01    0.114666D-01
   0   325    0.146658D-01    0.997400D+00    0.725779D+01    0.804659D-02
   0   326    0.147835D-01    0.997850D+00   -0.233628D+01    0.579373D-02
   0   327    0.143723D-01    0.997788D+00    0.658390D+01    0.605035D-02
   0   328    0.142928D-01    0.998466D+00   -0.268124D+01    0.448875D-02
   0   329    0.146528D-01    0.998016D+00    0.125844D+01    0.521709D-02
   0   330    0.145319D-01    0.998443D+00    0.862461D+01    0.438746D-02
   0   331    0.143755D-01    0.999454D+00   -0.392034D+01    0.197009D-02
   0   332    0.140807D-01    0.998409D+00    0.534403D+01    0.501422D-02
   0   333    0.141886D-01    0.998481D+00    0.612169D+01    0.431425D-02
   0   334    0.138967D-01    0.998371D+00    0.533815D+01    0.456922D-02
   0   335    0.139790D-01    0.998836D+00    0.645627D+01    0.357225D-02
   0   336    0.142381D-01    0.998140D+00   -0.516527D+01    0.461064D-02
   0   337    0.143175D-01    0.997226D+00   -0.703991D-01    0.785480D-02
   0   338    0.144856D-01    0.997393D+00    0.472519D+01    0.811103D-02
   0   339    0.144640D-01    0.996541D+00    0.754421D+01    0.100281D-01
   0   340    0.144081D-01    0.996506D+00   -0.554366D+00    0.102621D-01
   0   341    0.151628D-01    0.995216D+00   -0.707081D+01    0.136008D-01
   0   342    0.157662D-01    0.994798D+00    0.352386D+00    0.151424D-01
   0   343    0.165656D-01    0.994563D+00    0.272449D+01    0.153101D-01
   0   344    0.171751D-01    0.994306D+00   -0.101862D+02    0.168981D-01
   0   345    0.177240D-01    0.992641D+00   -0.859418D+01    0.207175D-01
   0   346    0.185769D-01    0.990473D+00   -0.661632D+01    0.273582D-01
   0   347    0.193022D-01    0.985193D+00   -0.498925D+01    0.427919D-01
   0   348    0.212582D-01    0.979017D+00    0.158125D+01    0.589681D-01
   0   349    0.235105D-01    0.968757D+00   -0.379015D+01    0.867714D-01
   0   350    0.261370D-01    0.952921D+00   -0.573155D+01    0.126986D+00
   0   351    0.287542D-01    0.926322D+00   -0.145832D+02    0.182174D+00
   0   352    0.274964D-01    0.882859D+00   -0.506223D+01    0.248142D+00
   0   353    0.214807D-01    0.817754D+00   -0.328122D+01    0.306517D+00
   0   354    0.131411D-01    0.729763D+00   -0.308056D+01    0.348591D+00
   0   355    0.652562D-02    0.625964D+00    0.941021D+00    0.375267D+00
   0   356    0.287457D-02    0.516856D+00    0.136631D+01    0.391598D+00
   0   357    0.116650D-02    0.412614D+00    0.701559D+00    0.401731D+00
   0   358    0.438842D-03    0.320011D+00    0.420067D+00    0.408196D+00
   0   359    0.159166D-03    0.242053D+00    0.254661D-01    0.412437D+00
   0   360    0.546796D-04    0.179134D+00    0.480392D-01    0.415283D+00
   0   361    0.181939D-04    0.130053D+00    0.144219D-01    0.417221D+00
   0   362    0.603492D-05    0.928462D-01    0.471200D-02    0.418553D+00
   0   363    0.191253D-05    0.653129D-01    0.160218D-02    0.419470D+00
   0   364    0.588944D-06    0.453537D-01    0.248881D-03    0.420103D+00
   0   365    0.172180D-06    0.311390D-01    0.209007D-03    0.420537D+00
   0   366    0.527687D-07    0.211687D-01    0.109900D-04    0.420835D+00
   0   367    0.154003D-07    0.142669D-01    0.425703D-05    0.421037D+00
   0   368    0.451739D-08    0.954308D-02    0.494320D-05    0.421174D+00
   0   369    0.129698D-08    0.634153D-02    0.378021D-06    0.421266D+00
   0   370    0.371684D-09    0.418996D-02    0.178879D-06    0.421328D+00
   0   371    0.114856D-09    0.275456D-02    0.758840D-07    0.421369D+00
   0   372    0.358427D-10    0.180299D-02    0.109424D-07    0.421396D+00
   0   373    0.107849D-10    0.117562D-02    0.109495D-07    0.421414D+00
   0   374    0.340053D-11    0.763972D-03    0.373452D-08    0.421425D+00
   0   375    0.990871D-12    0.494995D-03    0.130210D-08    0.421433D+00
   0   376    0.279356D-12    0.319881D-03    0.332595D-09    0.421438D+00
   0   377    0.815474D-13    0.206239D-03    0.770036D-10    0.421441D+00
   0   378    0.228399D-13    0.132699D-03    0.920358D-11    0.421443D+00
   0   379    0.655382D-14    0.852265D-04    0.319745D-11    0.421445D+00
   0   380    0.185962D-14    0.546490D-04    0.178988D-11    0.421445D+00
   0   381    0.505387D-15    0.349918D-04    0.459373D-12    0.421446D+00
   0   382    0.141196D-15    0.223767D-04    0.132341D-12    0.421446D+00
   0   383    0.376504D-16    0.142932D-04    0.111702D-13    0.421447D+00
   0   384    0.102673D-16    0.912053D-05    0.129164D-13    0.421447D+00
   0   385    0.273984D-17    0.581453D-05    0.258886D-14    0.421447D+00
   0   386    0.742005D-18    0.370384D-05    0.380518D-15    0.421447D+00
   0   387    0.194027D-18    0.235760D-05    0.803201D-16    0.421447D+00
   0   388    0.509962D-19    0.149969D-05    0.417618D-16    0.421447D+00
   0   389    0.132259D-19    0.953378D-06    0.119685D-16    0.421447D+00
   0   390    0.344640D-20    0.605733D-06    0.370080D-17    0.421447D+00
   0   391    0.874325D-21    0.384633D-06    0.103917D-17    0.421447D+00
   0   392    0.226716D-21    0.244072D-06    0.134553D-18    0.421447D+00
   0   393    0.567447D-22    0.154725D-06    0.457769D-19    0.421447D+00
   0   394    0.142477D-22    0.979032D-07    0.109068D-19    0.421447D+00
   0   395    0.359691D-23    0.616966D-07    0.409734D-20    0.421447D+00
   0   396    0.921197D-24    0.385002D-07    0.383678D-21    0.421447D+00
   0   397    0.230877D-24    0.234330D-07    0.271590D-21    0.421447D+00