variables =  "IG"  "JG"  "PHI"  "Temp."  "Latent_heat"  "mm"
ZONE  I=  401  J=  101
   0     0    0.100000D+01    0.774438D+00    0.000000D+00    0.330457D+00
   0     1    0.100000D+01    0.774438D+00    0.000000D+00    0.330457D+00
   0     2    0.100000D+01    0.775312D+00    0.000000D+00    0.330044D+00
   0     3    0.100000D+01    0.777054D+00    0.000000D+00    0.329214D+00
   0     4    0.100000D+01    0.779652D+00    0.000000D+00    0.327955D+00
   0     5    0.100000D+01    0.783087D+00    0.000000D+00    0.326252D+00
   0     6    0.100000D+01    0.787337D+00    0.000000D+00    0.324083D+00
   0     7    0.100000D+01    0.792371D+00    0.000000D+00    0.321420D+00
   0     8    0.100000D+01    0.798157D+00    0.000000D+00    0.318227D+00
   0     9    0.100000D+01    0.804656D+00    0.000000D+00    0.314460D+00
   0    10    0.100000D+01    0.811828D+00    0.000000D+00    0.310067D+00
   0    11    0.100000D+01    0.819627D+00    0.000000D+00    0.304982D+00
   0    12    0.100000D+01    0.828008D+00    0.000000D+00    0.299130D+00
   0    13    0.100000D+01    0.836922D+00    0.133227D-10    0.292420D+00
   0    14    0.100000D+01    0.846321D+00    0.106581D-09    0.284742D+00
   0    15    0.100000D+01    0.856157D+00   -0.839329D-09    0.275968D+00
   0    16    0.100000D+01    0.866383D+00   -0.552891D-08    0.265945D+00
   0    17    0.100000D+01    0.876957D+00    0.307621D-07    0.254494D+00
   0    18    0.100000D+01    0.887843D+00   -0.773541D-06    0.241400D+00
   0    19    0.100000D+01    0.899013D+00   -0.315019D-05    0.226407D+00
   0    20    0.100000D+01    0.910457D+00   -0.313193D-04    0.209212D+00
   0    21    0.999999D+00    0.922184D+00   -0.336743D-03    0.189442D+00
   0    22    0.999994D+00    0.934243D+00   -0.245248D-02    0.166636D+00
   0    23    0.999953D+00    0.946741D+00   -0.174982D-01    0.140194D+00
   0    24    0.999663D+00    0.959879D+00   -0.162902D+00    0.109302D+00
   0    25    0.997618D+00    0.973993D+00    0.826989D-01    0.728524D-01
   0    26    0.983817D+00    0.989509D+00   -0.550859D+00    0.302014D-01
   0    27    0.898950D+00    0.100850D+01    0.319364D+02   -0.246100D-01
   0    28    0.509695D+00    0.102604D+01    0.177225D+03   -0.748426D-01
   0    29    0.123003D+00    0.102969D+01    0.298566D+02   -0.805665D-01
   0    30    0.329593D-01    0.102275D+01    0.432884D+01   -0.646550D-01
   0    31    0.127903D-01    0.101761D+01    0.545854D+01   -0.503847D-01
   0    32    0.927690D-02    0.101440D+01   -0.454256D+01   -0.411028D-01
   0    33    0.961913D-02    0.101094D+01   -0.217262D+00   -0.315975D-01
   0    34    0.982672D-02    0.100790D+01    0.407891D+01   -0.221014D-01
   0    35    0.103455D-01    0.100619D+01    0.582200D+01   -0.177298D-01
   0    36    0.110814D-01    0.100548D+01   -0.353149D+01   -0.151681D-01
   0    37    0.111698D-01    0.100504D+01   -0.391922D+01   -0.148245D-01
   0    38    0.112630D-01    0.100431D+01   -0.732197D+00   -0.120305D-01
   0    39    0.112717D-01    0.100334D+01    0.588119D+01   -0.957672D-02
   0    40    0.117198D-01    0.100323D+01   -0.750583D+01   -0.925832D-02
   0    41    0.116473D-01    0.100317D+01    0.555683D+01   -0.889547D-02
   0    42    0.120617D-01    0.100131D+01    0.537365D+01   -0.353874D-02
   0    43    0.120378D-01    0.100143D+01   -0.443499D+00   -0.406637D-02
   0    44    0.121376D-01    0.100179D+01    0.560414D+01   -0.450797D-02
   0    45    0.125939D-01    0.100171D+01    0.406104D+01   -0.532685D-02
   0    46    0.130355D-01    0.100198D+01    0.218734D+01   -0.542928D-02
   0    47    0.131909D-01    0.100148D+01   -0.520424D+01   -0.471808D-02
   0    48    0.131455D-01    0.100102D+01    0.571380D+01   -0.336542D-02
   0    49    0.132847D-01    0.999991D+00   -0.150389D+01    0.125266D-03
   0    50    0.132326D-01    0.999707D+00    0.125228D+01    0.878673D-03
   0    51    0.134826D-01    0.999731D+00    0.563992D+01    0.489466D-03
   0    52    0.135791D-01    0.999559D+00   -0.439075D+01    0.102735D-02
   0    53    0.139361D-01    0.999424D+00    0.531241D+01    0.115958D-02
   0    54    0.138323D-01    0.998790D+00   -0.820247D+00    0.364381D-02
   0    55    0.139528D-01    0.998807D+00   -0.241265D+01    0.296307D-02
   0    56    0.138332D-01    0.998843D+00    0.605214D+01    0.356295D-02
   0    57    0.142078D-01    0.998192D+00   -0.659294D+00    0.468659D-02
   0    58    0.142249D-01    0.999839D+00   -0.597912D+00    0.911275D-03
   0    59    0.144060D-01    0.998122D+00   -0.546382D+01    0.539403D-02
   0    60    0.144777D-01    0.997103D+00    0.385230D+01    0.810894D-02
   0    61    0.142902D-01    0.998326D+00    0.311843D+01    0.480850D-02
   0    62    0.140080D-01    0.998138D+00   -0.672907D+01    0.534788D-02
   0    63    0.140596D-01    0.998089D+00   -0.211074D+01    0.584236D-02
   0    64    0.141644D-01    0.998690D+00    0.819456D+01    0.398374D-02
   0    65    0.141042D-01    0.998266D+00   -0.282662D+01    0.526126D-02
   0    66    0.142925D-01    0.998604D+00   -0.822459D+01    0.318272D-02
   0    67    0.141236D-01    0.998192D+00   -0.714436D+01    0.572415D-02
   0    68    0.137728D-01    0.998525D+00    0.546024D+01    0.416899D-02
   0    69    0.140933D-01    0.998318D+00   -0.492480D+01    0.539038D-02
   0    70    0.143991D-01    0.997816D+00    0.404518D+01    0.622134D-02
   0    71    0.145892D-01    0.997797D+00    0.264735D+01    0.685656D-02
   0    72    0.146859D-01    0.997699D+00    0.873532D+01    0.719128D-02
   0    73    0.153309D-01    0.996580D+00   -0.700415D+01    0.967855D-02
   0    74    0.153523D-01    0.997241D+00   -0.235093D+01    0.848889D-02
   0    75    0.155220D-01    0.996672D+00    0.274814D+01    0.914813D-02
   0    76    0.157775D-01    0.996117D+00   -0.111324D+01    0.116639D-01
   0    77    0.162068D-01    0.993344D+00   -0.384953D+01    0.182694D-01
   0    78    0.168170D-01    0.992653D+00    0.230166D+01    0.215932D-01
   0    79    0.171954D-01    0.988771D+00   -0.107263D+02    0.320670D-01
   0    80    0.183182D-01    0.982605D+00   -0.165274D+00    0.501034D-01
   0    81    0.202282D-01    0.972383D+00   -0.951634D+01    0.774297D-01
   0    82    0.226752D-01    0.957003D+00    0.964058D+01    0.116502D+00
   0    83    0.263109D-01    0.933598D+00    0.118984D+02    0.168429D+00
   0    84    0.264404D-01    0.896182D+00   -0.994156D+01    0.230768D+00
   0    85    0.225856D-01    0.839358D+00   -0.794005D+01    0.290678D+00
   0    86    0.156616D-01    0.761812D+00    0.357463D+01    0.336395D+00
   0    87    0.887846D-02    0.664090D+00    0.801904D+01    0.367221D+00
   0    88    0.412975D-02    0.556099D+00    0.774176D+00    0.386601D+00
   0    89    0.171931D-02    0.449098D+00   -0.762836D-02    0.398608D+00
   0    90    0.668791D-03    0.351554D+00    0.343547D-01    0.406197D+00
   0    91    0.235476D-03    0.267924D+00    0.175792D+00    0.411129D+00
   0    92    0.825677D-04    0.199517D+00    0.839847D-01    0.414410D+00
   0    93    0.268564D-04    0.145612D+00    0.315941D-01    0.416631D+00
   0    94    0.881439D-05    0.104412D+00    0.716357D-02    0.418150D+00
   0    95    0.283182D-05    0.737185D-01    0.290872D-02    0.419196D+00
   0    96    0.859829D-06    0.513450D-01    0.278427D-03    0.419916D+00
   0    97    0.256584D-06    0.353377D-01    0.265776D-03    0.420410D+00
   0    98    0.768011D-07    0.240678D-01    0.998413D-04    0.420749D+00
   0    99    0.225545D-07    0.162427D-01    0.622343D-05    0.420980D+00
   0   100    0.668712D-08    0.108745D-01    0.885135D-06    0.421136D+00
   0   101    0.190615D-08    0.722980D-02    0.750231D-06    0.421241D+00
   0   102    0.556360D-09    0.477749D-02    0.377789D-06    0.421311D+00
   0   103    0.161289D-09    0.314027D-02    0.110217D-06    0.421358D+00
   0   104    0.511911D-10    0.205458D-02    0.734064D-08    0.421389D+00
   0   105    0.153748D-10    0.133881D-02    0.211940D-07    0.421409D+00
   0   106    0.460030D-11    0.869329D-03    0.552002D-08    0.421422D+00
   0   107    0.138269D-11    0.562736D-03    0.132711D-08    0.421431D+00
   0   108    0.415821D-12    0.363286D-03    0.207243D-09    0.421437D+00
   0   109    0.120635D-12    0.233970D-03    0.624667D-10    0.421440D+00
   0   110    0.363252D-13    0.150371D-03    0.541908D-11    0.421443D+00
   0   111    0.102874D-13    0.964649D-04    0.673984D-11    0.421444D+00
   0   112    0.285883D-14    0.617829D-04    0.248355D-11    0.421445D+00
   0   113    0.797274D-15    0.395133D-04    0.109264D-11    0.421446D+00
   0   114    0.221584D-15    0.252385D-04    0.446217D-13    0.421446D+00
   0   115    0.592501D-16    0.161025D-04    0.286088D-13    0.421447D+00
   0   116    0.158431D-16    0.102633D-04    0.156387D-13    0.421447D+00
   0   117    0.418888D-17    0.653565D-05    0.277131D-14    0.421447D+00
   0   118    0.112460D-17    0.415856D-05    0.994997D-15    0.421447D+00
   0   119    0.292984D-18    0.264415D-05    0.235625D-15    0.421447D+00
   0   120    0.770206D-19    0.168016D-05    0.383294D-16    0.421447D+00
   0   121    0.195235D-19    0.106701D-05    0.283044D-16    0.421447D+00
   0   122    0.503861D-20    0.677272D-06    0.171915D-17    0.421447D+00
   0   123    0.129989D-20    0.429693D-06    0.186457D-17    0.421447D+00
   0   124    0.335717D-21    0.272506D-06    0.339233D-18    0.421447D+00
   0   125    0.868177D-22    0.172757D-06    0.400580D-19    0.421447D+00
   0   126    0.214886D-22    0.109484D-06    0.283687D-19    0.421447D+00
   0   127    0.534025D-23    0.693647D-07    0.298328D-20    0.421447D+00
   0   128    0.134717D-23    0.439351D-07    0.118998D-20    0.421447D+00
   0   129    0.352907D-24    0.278216D-07    0.665713D-22    0.421447D+00
   0   130    0.903192D-25    0.176140D-07    0.237724D-22    0.421447D+00
   0   131    0.220075D-25    0.111493D-07    0.159463D-22    0.421447D+00
   0   132    0.545239D-26    0.705593D-08    0.317310D-23    0.421447D+00
   0   133    0.133971D-26    0.446464D-08    0.181891D-23    0.421447D+00
   0   134    0.329099D-27    0.282452D-08    0.365292D-24    0.421447D+00
   0   135    0.799309D-28    0.178661D-08    0.889829D-25    0.421447D+00
   0   136    0.194448D-28    0.112990D-08    0.253306D-25    0.421447D+00
   0   137    0.456128D-29    0.714448D-09    0.206070D-26    0.421447D+00
   0   138    0.114096D-29    0.451669D-09    0.111496D-26    0.421447D+00
   0   139    0.284598D-30    0.285483D-09    0.216046D-27    0.421447D+00
   0   140    0.682095D-31    0.180402D-09    0.898195D-28    0.421447D+00
   0   141    0.166642D-31    0.113972D-09    0.847858D-29    0.421447D+00
   0   142    0.406040D-32    0.719832D-10    0.228574D-29    0.421447D+00
   0   143    0.977244D-33    0.454497D-10    0.811568D-30    0.421447D+00
   0   144    0.239179D-33    0.286868D-10    0.335376D-30    0.421447D+00
   0   145    0.588237D-34    0.180995D-10    0.153928D-31    0.421447D+00
   0   146    0.143182D-34    0.114148D-10    0.103332D-31    0.421447D+00
   0   147    0.344543D-35    0.719559D-11    0.321457D-32    0.421447D+00
   0   148    0.819452D-36    0.453357D-11    0.584064D-33    0.421447D+00
   0   149    0.192334D-36    0.285475D-11    0.206775D-33    0.421447D+00
   0   150    0.467529D-37    0.179651D-11    0.659921D-34    0.421447D+00
   0   151    0.111563D-37    0.112979D-11    0.118460D-34    0.421447D+00
   0   152    0.272794D-38    0.709990D-12    0.162184D-35    0.421447D+00
   0   153    0.642612D-39    0.445829D-12    0.243743D-36    0.421447D+00
   0   154    0.157269D-39    0.279718D-12    0.570676D-37    0.421447D+00
   0   155    0.369068D-40    0.175342D-12    0.230795D-37    0.421447D+00
   0   156    0.873678D-41    0.109809D-12    0.844985D-38    0.421447D+00
   0   157    0.210156D-41    0.686999D-13    0.160821D-38    0.421447D+00
   0   158    0.507851D-42    0.429351D-13    0.547767D-39    0.421447D+00
   0   159    0.120703D-42    0.268030D-13    0.133387D-39    0.421447D+00
   0   160    0.289690D-43    0.167127D-13    0.320314D-40    0.421447D+00
   0   161    0.692061D-44    0.104082D-13    0.392580D-41    0.421447D+00
   0   162    0.167544D-44    0.647374D-14    0.626851D-42    0.421447D+00
   0   163    0.388417D-45    0.402121D-14    0.211435D-42    0.421447D+00
   0   164    0.920635D-46    0.249437D-14    0.576372D-43    0.421447D+00
   0   165    0.217753D-46    0.154506D-14    0.300436D-43    0.421447D+00
   0   166    0.527029D-47    0.955638D-15    0.583003D-44    0.421447D+00
   0   167    0.124748D-47    0.590178D-15    0.112345D-44    0.421447D+00
   0   168    0.299555D-48    0.363912D-15    0.376814D-45    0.421447D+00
   0   169    0.726208D-49    0.224035D-15    0.323830D-46    0.421447D+00
   0   170    0.170853D-49    0.137697D-15    0.251697D-46    0.421447D+00
   0   171    0.399475D-50    0.844899D-16    0.263005D-47    0.421447D+00
   0   172    0.970389D-51    0.517537D-16    0.951141D-48    0.421447D+00
   0   173    0.226850D-51    0.316461D-16    0.212003D-48    0.421447D+00
   0   174    0.530119D-52    0.193164D-16    0.634769D-49    0.421447D+00
   0   175    0.126420D-52    0.117692D-16    0.123505D-49    0.421447D+00
   0   176    0.295671D-53    0.715758D-17    0.203064D-50    0.421447D+00
   0   177    0.683949D-54    0.434485D-17    0.782876D-51    0.421447D+00
   0   178    0.165578D-54    0.263246D-17    0.970028D-52    0.421447D+00
   0   179    0.396782D-55    0.159189D-17    0.150343D-52    0.421447D+00
   0   180    0.915285D-56    0.960772D-18    0.127340D-52    0.421447D+00
   0   181    0.220538D-56    0.578726D-18    0.105189D-53    0.421447D+00
   0   182    0.516097D-57    0.347906D-18    0.243503D-54    0.421447D+00
   0   183    0.120836D-57    0.208727D-18    0.128020D-54    0.421447D+00
   0   184    0.282757D-58    0.124973D-18    0.115640D-55    0.421447D+00
   0   185    0.668326D-59    0.746727D-19    0.863439D-56    0.421447D+00
   0   186    0.160450D-59    0.445259D-19    0.125834D-56    0.421447D+00
   0   187    0.387399D-60    0.264948D-19    0.249624D-57    0.421447D+00
   0   188    0.903096D-61    0.157325D-19    0.113664D-57    0.421447D+00
   0   189    0.208712D-61    0.932224D-20    0.825978D-59    0.421447D+00
   0   190    0.482428D-62    0.551215D-20    0.752266D-59    0.421447D+00
   0   191    0.116133D-62    0.325233D-20    0.493894D-60    0.421447D+00
   0   192    0.275669D-63    0.191485D-20    0.179494D-60    0.421447D+00
   0   193    0.652563D-64    0.112497D-20    0.788464D-61    0.421447D+00
   0   194    0.145813D-64    0.659480D-21    0.233627D-61    0.421447D+00
   0   195    0.350729D-65    0.385761D-21    0.448717D-62    0.421447D+00
   0   196    0.850183D-66    0.225157D-21    0.648868D-63    0.421447D+00
   0   197    0.194351D-66    0.131129D-21    0.134927D-63    0.421447D+00
   0   198    0.458827D-67    0.762002D-22    0.187464D-64    0.421447D+00
   0   199    0.107326D-67    0.441827D-22    0.533545D-65    0.421447D+00
   0   200    0.258183D-68    0.255615D-22    0.347148D-65    0.421447D+00
   0   201    0.618443D-69    0.147555D-22    0.164433D-66    0.421447D+00
   0   202    0.144102D-69    0.849871D-23    0.719556D-67    0.421447D+00
   0   203    0.340736D-70    0.488406D-23    0.433468D-67    0.421447D+00
   0   204    0.825766D-71    0.280050D-23    0.583907D-68    0.421447D+00
   0   205    0.191732D-71    0.160220D-23    0.126700D-68    0.421447D+00
   0   206    0.443952D-72    0.914572D-24    0.575595D-69    0.421447D+00
   0   207    0.103669D-72    0.520884D-24    0.146430D-69    0.421447D+00
   0   208    0.242905D-73    0.295995D-24    0.306491D-70    0.421447D+00
   0   209    0.574816D-74    0.167820D-24    0.759228D-71    0.421447D+00
   0   210    0.137766D-74    0.949339D-25    0.854409D-72    0.421447D+00
   0   211    0.329580D-75    0.535813D-25    0.337991D-72    0.421447D+00
   0   212    0.759872D-76    0.301731D-25    0.309613D-73    0.421447D+00
   0   213    0.183738D-76    0.169527D-25    0.258074D-73    0.421447D+00
   0   214    0.437279D-77    0.950319D-26    0.557011D-74    0.421447D+00
   0   215    0.100871D-77    0.531510D-26    0.858473D-75    0.421447D+00
   0   216    0.241379D-78    0.296595D-26    0.142747D-75    0.421447D+00
   0   217    0.583176D-79    0.165130D-26    0.219203D-76    0.421447D+00
   0   218    0.135920D-79    0.917269D-27    0.121251D-76    0.421447D+00
   0   219    0.322772D-80    0.508366D-27    0.151610D-77    0.421447D+00
   0   220    0.751873D-81    0.281102D-27    0.962354D-78    0.421447D+00
   0   221    0.175032D-81    0.155081D-27    0.887004D-79    0.421447D+00
   0   222    0.413061D-82    0.853615D-28    0.414812D-79    0.421447D+00
   0   223    0.968946D-83    0.468783D-28    0.103657D-79    0.421447D+00
   0   224    0.235863D-83    0.256856D-28    0.321137D-80    0.421447D+00
   0   225    0.555637D-84    0.140415D-28    0.355801D-81    0.421447D+00
   0   226    0.131600D-84    0.765849D-29    0.834277D-82    0.421447D+00
   0   227    0.314489D-85    0.416754D-29    0.236554D-82    0.421447D+00
   0   228    0.743254D-86    0.226268D-29    0.323943D-83    0.421447D+00
   0   229    0.174319D-86    0.122567D-29    0.602610D-84    0.421447D+00
   0   230    0.406746D-87    0.662418D-30    0.302973D-84    0.421447D+00
   0   231    0.966226D-88    0.357188D-30    0.683598D-85    0.421447D+00
   0   232    0.227743D-88    0.192162D-30    0.269913D-85    0.421447D+00
   0   233    0.540699D-89    0.103145D-30    0.455916D-86    0.421447D+00
   0   234    0.123960D-89    0.552375D-31    0.687547D-87    0.421447D+00
   0   235    0.287488D-90    0.295141D-31    0.179392D-87    0.421447D+00
   0   236    0.686530D-91    0.157338D-31    0.443080D-88    0.421447D+00
   0   237    0.159449D-91    0.836844D-32    0.190981D-88    0.421447D+00
   0   238    0.373429D-92    0.444084D-32    0.463547D-89    0.421447D+00
   0   239    0.870500D-93    0.235123D-32    0.944622D-90    0.421447D+00
   0   240    0.198924D-93    0.124204D-32    0.300377D-90    0.421447D+00
   0   241    0.464957D-94    0.654617D-33    0.666864D-91    0.421447D+00
   0   242    0.109453D-94    0.344230D-33    0.135431D-91    0.421447D+00
   0   243    0.250898D-95    0.180602D-33    0.155133D-92    0.421447D+00
   0   244    0.578719D-96    0.945382D-34    0.650494D-93    0.421447D+00
   0   245    0.136645D-96    0.493748D-34    0.106461D-93    0.421447D+00
   0   246    0.312271D-97    0.257286D-34    0.131781D-94    0.421447D+00
   0   247    0.725479D-98    0.133764D-34    0.723110D-95    0.421447D+00
   0   248    0.164815D-98    0.693873D-35    0.143542D-95    0.421447D+00
   0   249    0.383391D-99    0.359115D-35    0.231194D-96    0.421447D+00
   0   250    0.865092-100    0.185440D-35    0.124268D-96    0.421447D+00
   0   251    0.196843-100    0.955410D-36    0.288725D-97    0.421447D+00
   0   252    0.453229-101    0.491126D-36    0.416216D-98    0.421447D+00
   0   253    0.103825-101    0.251892D-36    0.546494D-99    0.421447D+00
   0   254    0.234891-102    0.128900D-36    0.256018D-99    0.421447D+00
   0   255    0.551412-103    0.658129D-37    0.391384-100    0.421447D+00
   0   256    0.120782-103    0.335266D-37    0.154670-100    0.421447D+00
   0   257    0.275920-104    0.170408D-37    0.396227-101    0.421447D+00
   0   258    0.618161-105    0.864190D-38    0.617029-102    0.421447D+00
   0   259    0.142124-105    0.437273D-38    0.193992-102    0.421447D+00
   0   260    0.321323-106    0.220759D-38    0.362865-103    0.421447D+00
   0   261    0.702091-107    0.111201D-38    0.792463-104    0.421447D+00
   0   262    0.153858-107    0.558885D-39    0.123882-104    0.421447D+00
   0   263    0.360990-108    0.280261D-39    0.162691-105    0.421447D+00
   0   264    0.792742-109    0.140226D-39    0.604141-106    0.421447D+00
   0   265    0.177642-109    0.700038D-40    0.176418-106    0.421447D+00
   0   266    0.395339-110    0.348693D-40    0.367808-107    0.421447D+00
   0   267    0.853999-111    0.173298D-40    0.524360-108    0.421447D+00
   0   268    0.190670-111    0.859358D-41    0.258430-108    0.421447D+00
   0   269    0.418278-112    0.425192D-41    0.505494-109    0.421447D+00
   0   270    0.923416-113    0.209907D-41    0.543780-110    0.421447D+00
   0   271    0.205997-113    0.103396D-41    0.309490-110    0.421447D+00
   0   272    0.441239-114    0.508171D-42    0.690190-111    0.421447D+00
   0   273    0.961831-115    0.249202D-42    0.103590-111    0.421447D+00
   0   274    0.216570-115    0.121935D-42    0.194951-112    0.421447D+00
   0   275    0.476006-116    0.595310D-43    0.553394-113    0.421447D+00
   0   276    0.106023-116    0.289997D-43    0.108627-113    0.421447D+00
   0   277    0.229664-117    0.140956D-43    0.128613-114    0.421447D+00
   0   278    0.496174-118    0.683612D-44    0.584669-115    0.421447D+00
   0   279    0.103047-118    0.330809D-44    0.596323-116    0.421447D+00
   0   280    0.220684-119    0.159729D-44    0.203233-116    0.421447D+00
   0   281    0.478971-120    0.769546D-45    0.220576-117    0.421447D+00
   0   282    0.102131-120    0.369936D-45    0.930527-118    0.421447D+00
   0   283    0.216345-121    0.177445D-45    0.342544-118    0.421447D+00
   0   284    0.464331-122    0.849265D-46    0.760025-119    0.421447D+00
   0   285    0.985891-123    0.405573D-46    0.155386-119    0.421447D+00
   0   286    0.206692-123    0.193260D-46    0.347360-120    0.421447D+00
   0   287    0.431267-124    0.918887D-47    0.249207-121    0.421447D+00
   0   288    0.915981-125    0.435944D-47    0.132769-121    0.421447D+00
   0   289    0.187192-125    0.206371D-47    0.300474-122    0.421447D+00
   0   290    0.392669-126    0.974805D-48    0.385321-123    0.421447D+00
   0   291    0.787890-127    0.459449D-48    0.571774-124    0.421447D+00
   0   292    0.162746-127    0.216078D-48    0.292926-124    0.421447D+00
   0   293    0.347985-128    0.101400D-48    0.535057-125    0.421447D+00
   0   294    0.718207-129    0.474807D-49    0.104618-125    0.421447D+00
   0   295    0.146841-129    0.221847D-49    0.113201-126    0.421447D+00
   0   296    0.302471-130    0.103430D-49    0.532946-127    0.421447D+00
   0   297    0.615844-131    0.481166D-50    0.956285-128    0.421447D+00
   0   298    0.131142-131    0.223359D-50    0.219897-128    0.421447D+00
   0   299    0.273216-132    0.103460D-50    0.183266-129    0.421447D+00
   0   300    0.539031-133    0.478189D-51    0.992063-130    0.421447D+00
   0   301    0.106910-133    0.220541D-51    0.194819-130    0.421447D+00
   0   302    0.220565-134    0.101494D-51    0.367787-131    0.421447D+00
   0   303    0.441107-135    0.466078D-52    0.611634-132    0.421447D+00
   0   304    0.905170-136    0.213570D-52    0.572952-133    0.421447D+00
   0   305    0.177092-136    0.976531D-53    0.272196-133    0.421447D+00
   0   306    0.359203-137    0.445553D-53    0.494561-134    0.421447D+00
   0   307    0.723061-138    0.202853D-53    0.529873-135    0.421447D+00
   0   308    0.145169-138    0.921574D-54    0.255990-135    0.421447D+00
   0   309    0.293024-139    0.417782D-54    0.378388-136    0.421447D+00
   0   310    0.584636-140    0.188991D-54    0.822737-137    0.421447D+00
   0   311    0.114502-140    0.853105D-55    0.210334-137    0.421447D+00
   0   312    0.226387-141    0.384271D-55    0.353443-138    0.421447D+00
   0   313    0.448752-142    0.172722D-55    0.522506-139    0.421447D+00
   0   314    0.873780-143    0.774695D-56    0.103428-139    0.421447D+00
   0   315    0.170809-143    0.346730D-56    0.254256-140    0.421447D+00
   0   316    0.334150-144    0.154856D-56    0.294105-141    0.421447D+00
   0   317    0.662708-145    0.690150D-57    0.950734-142    0.421447D+00
   0   318    0.131656-145    0.306929D-57    0.187840-142    0.421447D+00
   0   319    0.252013-146    0.136211D-57    0.318599-143    0.421447D+00
   0   320    0.480994-147    0.603211D-58    0.920205-144    0.421447D+00
   0   321    0.948595-148    0.266568D-58    0.141087-144    0.421447D+00
   0   322    0.180780-148    0.117552D-58    0.237634-145    0.421447D+00
   0   323    0.335127-149    0.517293D-59    0.642252-146    0.421447D+00
   0   324    0.657462-150    0.227158D-59    0.896093-147    0.421447D+00
   0   325    0.122172-150    0.995421D-60    0.159221-147    0.421447D+00
   0   326    0.235103-151    0.435284D-60    0.237734-148    0.421447D+00
   0   327    0.455485-152    0.189945D-60    0.545126-149    0.421447D+00
   0   328    0.870745-153    0.827127D-61    0.134480-149    0.421447D+00
   0   329    0.164107-153    0.359424D-61    0.216749-150    0.421447D+00
   0   330    0.311646-154    0.155860D-61    0.317439-151    0.421447D+00
   0   331    0.583209-155    0.674458D-62    0.813049-152    0.421447D+00
   0   332    0.111682-155    0.291252D-62    0.981290-153    0.421447D+00
   0   333    0.209276-156    0.125510D-62    0.343892-153    0.421447D+00
   0   334    0.379802-157    0.539738D-63    0.743264-154    0.421447D+00
   0   335    0.704843-158    0.231625D-63    0.135348-154    0.421447D+00
   0   336    0.132034-158    0.991941D-64    0.147523-155    0.421447D+00
   0   337    0.242614-159    0.423922D-64    0.449977-156    0.421447D+00
   0   338    0.454458-160    0.180795D-64    0.656756-157    0.421447D+00
   0   339    0.839861-161    0.769462D-65    0.686947-158    0.421447D+00
   0   340    0.154127-161    0.326807D-65    0.259585-158    0.421447D+00
   0   341    0.276422-162    0.138516D-65    0.318775-159    0.421447D+00
   0   342    0.509321-163    0.585883D-66    0.584885-160    0.421447D+00
   0   343    0.938419-164    0.247302D-66    0.169846-160    0.421447D+00
   0   344    0.170306-164    0.104172D-66    0.154942-161    0.421447D+00
   0   345    0.305633-165    0.437910D-67    0.565036-162    0.421447D+00
   0   346    0.542113-166    0.183707D-67    0.111247-162    0.421447D+00
   0   347    0.989323-167    0.769090D-68    0.127819-163    0.421447D+00
   0   348    0.174882-167    0.321321D-68    0.333392-164    0.421447D+00
   0   349    0.309696-168    0.133972D-68    0.631026-165    0.421447D+00
   0   350    0.563412-169    0.557442D-69    0.104530-165    0.421447D+00
   0   351    0.998833-170    0.231473D-69    0.164390-166    0.421447D+00
   0   352    0.174034-170    0.959218D-70    0.287169-167    0.421447D+00
   0   353    0.312914-171    0.396689D-70    0.343056-168    0.421447D+00
   0   354    0.554264-172    0.163719D-70    0.885137-169    0.421447D+00
   0   355    0.997292-173    0.674323D-71    0.180157-169    0.421447D+00
   0   356    0.173547-173    0.277176D-71    0.368816-170    0.421447D+00
   0   357    0.301774-174    0.113701D-71    0.580583-171    0.421447D+00
   0   358    0.535312-175    0.465472D-72    0.644096-172    0.421447D+00
   0   359    0.952821-176    0.190172D-72    0.133746-172    0.421447D+00
   0   360    0.160325-176    0.775393D-73    0.347851-173    0.421447D+00
   0   361    0.276566-177    0.315517D-73    0.581177-174    0.421447D+00
   0   362    0.474458-178    0.128130D-73    0.101384-174    0.421447D+00
   0   363    0.834697-179    0.519282D-74    0.122662-175    0.421447D+00
   0   364    0.144004-179    0.210032D-74    0.260483-176    0.421447D+00
   0   365    0.244277-180    0.847803D-75    0.481342-177    0.421447D+00
   0   366    0.412305-181    0.341535D-75    0.468491-178    0.421447D+00
   0   367    0.731189-182    0.137311D-75    0.853529-179    0.421447D+00
   0   368    0.123883-182    0.550948D-76    0.154526-179    0.421447D+00
   0   369    0.208619-183    0.220621D-76    0.268750-180    0.421447D+00
   0   370    0.364978-184    0.881695D-77    0.498166-181    0.421447D+00
   0   371    0.622302-185    0.351662D-77    0.129089-181    0.421447D+00
   0   372    0.101871-185    0.139981D-77    0.191494-182    0.421447D+00
   0   373    0.172193-186    0.556093D-78    0.298518-183    0.421447D+00
   0   374    0.276904-187    0.220479D-78    0.417552-184    0.421447D+00
   0   375    0.472325-188    0.872418D-79    0.753054-185    0.421447D+00
   0   376    0.808346-189    0.344527D-79    0.103662-185    0.421447D+00
   0   377    0.133526-189    0.135789D-79    0.209541-186    0.421447D+00
   0   378    0.219705-190    0.534130D-80    0.375059-187    0.421447D+00
   0   379    0.355840-191    0.209688D-80    0.597740-188    0.421447D+00
   0   380    0.596349-192    0.821571D-81    0.917510-189    0.421447D+00
   0   381    0.950739-193    0.321264D-81    0.146499-189    0.421447D+00
   0   382    0.154719-193    0.125379D-81    0.243692-190    0.421447D+00
   0   383    0.255471-194    0.488358D-82    0.556020-191    0.421447D+00
   0   384    0.415420-195    0.189845D-82    0.884700-192    0.421447D+00
   0   385    0.674282-196    0.736564D-83    0.147074-192    0.421447D+00
   0   386    0.109111-196    0.285215D-83    0.200582-193    0.421447D+00
   0   387    0.178015-197    0.110227D-83    0.391773-194    0.421447D+00
   0   388    0.290532-198    0.425162D-84    0.370498-195    0.421447D+00
   0   389    0.465875-199    0.163672D-84    0.100529-195    0.421447D+00
   0   390    0.740202-200    0.628857D-85    0.955425-197    0.421447D+00
   0   391    0.121156-200    0.241149D-85    0.192439-197    0.421447D+00
   0   392    0.194043-201    0.922943D-86    0.238174-198    0.421447D+00
   0   393    0.313542-202    0.352552D-86    0.733314-199    0.421447D+00
   0   394    0.509404-203    0.134409D-86    0.992020-200    0.421447D+00
   0   395    0.802010-204    0.511416D-87    0.111640-200    0.421447D+00
   0   396    0.127250-204    0.194157D-87    0.195918-201    0.421447D+00
   0   397    0.201538-205    0.734146D-88    0.486173-202    0.421447D+00