variables =  "IG"  "JG"  "PHI"  "Temp."  "Latent_heat"  "mm"
ZONE  I=  401  J=  101
   0     0    0.100000D+01    0.836104D+00    0.000000D+00    0.293058D+00
   0     1    0.100000D+01    0.836104D+00    0.000000D+00    0.293058D+00
   0     2    0.100000D+01    0.836594D+00    0.000000D+00    0.292677D+00
   0     3    0.100000D+01    0.837572D+00    0.000000D+00    0.291910D+00
   0     4    0.100000D+01    0.839033D+00    0.000000D+00    0.290752D+00
   0     5    0.100000D+01    0.840971D+00    0.000000D+00    0.289192D+00
   0     6    0.100000D+01    0.843379D+00    0.000000D+00    0.287216D+00
   0     7    0.100000D+01    0.846244D+00    0.000000D+00    0.284808D+00
   0     8    0.100000D+01    0.849556D+00    0.000000D+00    0.281944D+00
   0     9    0.100000D+01    0.853300D+00    0.000000D+00    0.278599D+00
   0    10    0.100000D+01    0.857462D+00    0.000000D+00    0.274743D+00
   0    11    0.100000D+01    0.862023D+00    0.000000D+00    0.270339D+00
   0    12    0.100000D+01    0.866967D+00    0.000000D+00    0.265344D+00
   0    13    0.100000D+01    0.872275D+00    0.000000D+00    0.259711D+00
   0    14    0.100000D+01    0.877927D+00    0.000000D+00    0.253385D+00
   0    15    0.100000D+01    0.883904D+00    0.000000D+00    0.246302D+00
   0    16    0.100000D+01    0.890187D+00   -0.133227D-10    0.238392D+00
   0    17    0.100000D+01    0.896758D+00   -0.186517D-09    0.229573D+00
   0    18    0.100000D+01    0.903598D+00   -0.134559D-08    0.219755D+00
   0    19    0.100000D+01    0.910695D+00   -0.118305D-07    0.208835D+00
   0    20    0.100000D+01    0.918038D+00    0.630163D-08    0.196697D+00
   0    21    0.100000D+01    0.925622D+00    0.603078D-06    0.183209D+00
   0    22    0.100000D+01    0.933449D+00    0.152479D-05    0.168222D+00
   0    23    0.100000D+01    0.941535D+00    0.574007D-04    0.151565D+00
   0    24    0.999999D+00    0.949908D+00    0.338750D-03    0.133036D+00
   0    25    0.999996D+00    0.958618D+00    0.244741D-03    0.112404D+00
   0    26    0.999969D+00    0.967742D+00   -0.143686D-01    0.893923D-01
   0    27    0.999787D+00    0.977407D+00    0.391176D-01    0.636520D-01
   0    28    0.998641D+00    0.987840D+00   -0.325387D+00    0.346627D-01
   0    29    0.991729D+00    0.999367D+00    0.257951D+01    0.188532D-02
   0    30    0.949327D+00    0.101218D+01    0.827899D+01   -0.344310D-01
   0    31    0.725173D+00    0.102678D+01   -0.785705D+01   -0.760392D-01
   0    32    0.195402D+00    0.102972D+01    0.882661D+02   -0.843643D-01
   0    33    0.442744D-01    0.102599D+01   -0.127515D+02   -0.723089D-01
   0    34    0.151495D-01    0.102094D+01   -0.638575D+01   -0.586111D-01
   0    35    0.960594D-02    0.101607D+01    0.282120D+01   -0.458536D-01
   0    36    0.904001D-02    0.101214D+01    0.403973D+01   -0.346414D-01
   0    37    0.967569D-02    0.100881D+01   -0.399360D+01   -0.255549D-01
   0    38    0.101050D-01    0.100695D+01    0.161910D+01   -0.193011D-01
   0    39    0.106282D-01    0.100631D+01    0.206396D+00   -0.179552D-01
   0    40    0.109834D-01    0.100505D+01   -0.434020D+01   -0.149888D-01
   0    41    0.106599D-01    0.100411D+01   -0.919402D+00   -0.121042D-01
   0    42    0.109469D-01    0.100444D+01   -0.361973D+01   -0.128576D-01
   0    43    0.110728D-01    0.100492D+01   -0.765924D+00   -0.135772D-01
   0    44    0.116530D-01    0.100474D+01   -0.540847D+01   -0.131019D-01
   0    45    0.114091D-01    0.100313D+01    0.101389D+01   -0.846893D-02
   0    46    0.115895D-01    0.100267D+01    0.214181D+01   -0.800825D-02
   0    47    0.117927D-01    0.100287D+01    0.475139D+01   -0.779544D-02
   0    48    0.121382D-01    0.100257D+01    0.140909D+01   -0.684784D-02
   0    49    0.124238D-01    0.100257D+01    0.338810D+01   -0.753043D-02
   0    50    0.128340D-01    0.100143D+01   -0.287453D+01   -0.468368D-02
   0    51    0.126471D-01    0.100147D+01   -0.306388D+01   -0.400592D-02
   0    52    0.127851D-01    0.100117D+01   -0.151410D+01   -0.326654D-02
   0    53    0.126005D-01    0.100115D+01   -0.582570D+01   -0.287385D-02
   0    54    0.128483D-01    0.999955D+00   -0.730370D+01    0.521214D-03
   0    55    0.131500D-01    0.100055D+01    0.242978D+01   -0.172523D-02
   0    56    0.134817D-01    0.998785D+00   -0.102502D+01    0.335512D-02
   0    57    0.132217D-01    0.998627D+00    0.452321D+01    0.340242D-02
   0    58    0.136792D-01    0.999347D+00    0.617596D+01    0.188025D-02
   0    59    0.142860D-01    0.998214D+00   -0.100225D+02    0.448501D-02
   0    60    0.136681D-01    0.998796D+00   -0.660518D+01    0.319547D-02
   0    61    0.140597D-01    0.998990D+00   -0.419500D+01    0.277041D-02
   0    62    0.140321D-01    0.998120D+00   -0.760916D+01    0.526539D-02
   0    63    0.140693D-01    0.998053D+00   -0.738234D+01    0.502011D-02
   0    64    0.142382D-01    0.999555D+00   -0.509156D+01    0.142281D-02
   0    65    0.144932D-01    0.999460D+00   -0.329559D+00    0.186370D-02
   0    66    0.144102D-01    0.999712D+00    0.446237D+01    0.625437D-03
   0    67    0.138825D-01    0.998605D+00    0.257003D+01    0.359789D-02
   0    68    0.142759D-01    0.999233D+00    0.364479D+01    0.206376D-02
   0    69    0.145654D-01    0.995875D+00    0.140944D+01    0.125826D-01
   0    70    0.142566D-01    0.995320D+00    0.765118D+01    0.134006D-01
   0    71    0.141070D-01    0.997203D+00   -0.305358D+01    0.796620D-02
   0    72    0.138624D-01    0.996892D+00   -0.270636D+01    0.846974D-02
   0    73    0.137419D-01    0.997439D+00   -0.194589D+00    0.768456D-02
   0    74    0.141662D-01    0.998485D+00   -0.768607D+01    0.432203D-02
   0    75    0.139251D-01    0.998079D+00    0.733719D+01    0.524275D-02
   0    76    0.142936D-01    0.997153D+00    0.111123D+01    0.851633D-02
   0    77    0.137382D-01    0.997431D+00    0.833642D+01    0.681141D-02
   0    78    0.139901D-01    0.998664D+00    0.759652D+01    0.424182D-02
   0    79    0.139683D-01    0.998277D+00    0.278851D+01    0.421035D-02
   0    80    0.143177D-01    0.997694D+00   -0.378892D+01    0.659141D-02
   0    81    0.137133D-01    0.998480D+00    0.406923D+01    0.453236D-02
   0    82    0.140450D-01    0.998485D+00    0.448176D+01    0.403169D-02
   0    83    0.137528D-01    0.997919D+00    0.823460D+01    0.601965D-02
   0    84    0.139158D-01    0.998623D+00    0.415874D+01    0.446639D-02
   0    85    0.137742D-01    0.999201D+00    0.363799D+01    0.284173D-02
   0    86    0.139678D-01    0.999772D+00    0.563453D+01   -0.116410D-03
   0    87    0.140918D-01    0.999333D+00    0.755323D+01    0.239090D-02
   0    88    0.141388D-01    0.997999D+00   -0.293754D+01    0.589683D-02
   0    89    0.139666D-01    0.998134D+00   -0.116950D+01    0.599971D-02
   0    90    0.141977D-01    0.998410D+00   -0.592128D+01    0.450572D-02
   0    91    0.141114D-01    0.998803D+00   -0.216682D+00    0.335644D-02
   0    92    0.144744D-01    0.997592D+00    0.561567D+01    0.711045D-02
   0    93    0.144185D-01    0.997747D+00   -0.514522D+01    0.627967D-02
   0    94    0.143284D-01    0.997234D+00    0.358454D+01    0.750096D-02
   0    95    0.140317D-01    0.998262D+00   -0.468692D+01    0.438786D-02
   0    96    0.143856D-01    0.998847D+00   -0.517758D+01    0.324372D-02
   0    97    0.143723D-01    0.997536D+00   -0.549797D+01    0.692471D-02
   0    98    0.145809D-01    0.996931D+00   -0.369389D+01    0.897648D-02
   0    99    0.142327D-01    0.997461D+00    0.509931D+01    0.666239D-02
   0   100    0.142362D-01    0.998829D+00    0.273708D+01    0.359622D-02
   0   101    0.143478D-01    0.997851D+00    0.517307D+01    0.677570D-02
   0   102    0.145115D-01    0.997621D+00   -0.415595D+01    0.627489D-02
   0   103    0.147828D-01    0.997536D+00   -0.530718D+01    0.672100D-02
   0   104    0.147364D-01    0.997738D+00    0.662723D+00    0.676587D-02
   0   105    0.145297D-01    0.997131D+00   -0.199862D+01    0.782497D-02
   0   106    0.145821D-01    0.997802D+00    0.319905D+01    0.650580D-02
   0   107    0.144232D-01    0.997539D+00    0.558749D+01    0.762889D-02
   0   108    0.149628D-01    0.997340D+00   -0.914565D+01    0.704650D-02
   0   109    0.148471D-01    0.997478D+00   -0.240159D+01    0.732206D-02
   0   110    0.148701D-01    0.997276D+00    0.435593D+00    0.711424D-02
   0   111    0.150515D-01    0.997873D+00    0.564475D+01    0.590639D-02
   0   112    0.145952D-01    0.998229D+00    0.444004D+01    0.536490D-02
   0   113    0.147219D-01    0.996931D+00   -0.746435D+01    0.891997D-02
   0   114    0.147132D-01    0.997340D+00   -0.661790D+01    0.759931D-02
   0   115    0.145975D-01    0.996519D+00   -0.226375D+01    0.103384D-01
   0   116    0.152936D-01    0.995112D+00    0.132451D+01    0.144469D-01
   0   117    0.151040D-01    0.994803D+00    0.409017D+01    0.144817D-01
   0   118    0.156806D-01    0.995283D+00   -0.108261D+01    0.140435D-01
   0   119    0.159019D-01    0.995120D+00    0.467194D+01    0.139555D-01
   0   120    0.162047D-01    0.994354D+00   -0.585773D+01    0.161415D-01
   0   121    0.168639D-01    0.993947D+00    0.151065D+01    0.174053D-01
   0   122    0.165426D-01    0.994841D+00    0.926977D+01    0.148788D-01
   0   123    0.171416D-01    0.992889D+00    0.320773D+01    0.201403D-01
   0   124    0.170624D-01    0.990480D+00    0.441582D+01    0.279916D-01
   0   125    0.175496D-01    0.985440D+00   -0.735184D+01    0.408586D-01
   0   126    0.192568D-01    0.979347D+00    0.817390D+01    0.580318D-01
   0   127    0.218864D-01    0.969804D+00   -0.709532D+01    0.848061D-01
   0   128    0.250862D-01    0.950681D+00    0.121043D+00    0.131301D+00
   0   129    0.278991D-01    0.923603D+00   -0.945975D+01    0.186999D+00
   0   130    0.263489D-01    0.880335D+00   -0.543597D+01    0.250934D+00
   0   131    0.211563D-01    0.814022D+00   -0.692963D+00    0.308914D+00
   0   132    0.131917D-01    0.724917D+00    0.142191D+01    0.350265D+00
   0   133    0.657257D-02    0.619923D+00    0.118504D+01    0.376407D+00
   0   134    0.289020D-02    0.509830D+00    0.121372D+01    0.392412D+00
   0   135    0.114755D-02    0.405297D+00    0.594880D+00    0.402315D+00
   0   136    0.427871D-03    0.312989D+00    0.227550D+00    0.408617D+00
   0   137    0.147883D-03    0.235742D+00    0.145289D+00    0.412744D+00
   0   138    0.502956D-04    0.173753D+00    0.468564D-01    0.415507D+00
   0   139    0.163407D-04    0.125658D+00    0.148064D-01    0.417384D+00
   0   140    0.534072D-05    0.893825D-01    0.521583D-02    0.418671D+00
   0   141    0.161241D-05    0.626622D-01    0.695839D-03    0.419556D+00
   0   142    0.498842D-06    0.433742D-01    0.211007D-03    0.420164D+00
   0   143    0.149010D-06    0.296909D-01    0.587515D-04    0.420581D+00
   0   144    0.427412D-07    0.201277D-01    0.220936D-04    0.420866D+00
   0   145    0.128003D-07    0.135295D-01    0.348317D-05    0.421059D+00
   0   146    0.385709D-08    0.902734D-02    0.477265D-05    0.421189D+00
   0   147    0.109546D-08    0.598466D-02    0.112911D-05    0.421277D+00
   0   148    0.322879D-09    0.394531D-02    0.240307D-06    0.421335D+00
   0   149    0.990467D-10    0.258820D-02    0.325379D-07    0.421374D+00
   0   150    0.295798D-10    0.169069D-02    0.395629D-07    0.421399D+00
   0   151    0.917603D-11    0.110030D-02    0.584754D-08    0.421416D+00
   0   152    0.279113D-11    0.713753D-03    0.229911D-08    0.421427D+00
   0   153    0.828882D-12    0.461687D-03    0.438183D-09    0.421434D+00
   0   154    0.248804D-12    0.297896D-03    0.220197D-09    0.421439D+00
   0   155    0.711663D-13    0.191792D-03    0.176363D-10    0.421442D+00
   0   156    0.197898D-13    0.123242D-03    0.185256D-10    0.421444D+00
   0   157    0.571102D-14    0.790590D-04    0.513764D-11    0.421445D+00
   0   158    0.163457D-14    0.506397D-04    0.867046D-12    0.421446D+00
   0   159    0.464755D-15    0.323932D-04    0.331988D-12    0.421446D+00
   0   160    0.123461D-15    0.206969D-04    0.651557D-13    0.421446D+00
   0   161    0.316398D-16    0.132099D-04    0.355843D-13    0.421447D+00
   0   162    0.854111D-17    0.842346D-05    0.809581D-14    0.421447D+00
   0   163    0.237568D-17    0.536685D-05    0.219677D-14    0.421447D+00
   0   164    0.640649D-18    0.341684D-05    0.142909D-15    0.421447D+00
   0   165    0.165640D-18    0.217391D-05    0.201259D-15    0.421447D+00
   0   166    0.417488D-19    0.138229D-05    0.346748D-16    0.421447D+00
   0   167    0.106893D-19    0.878461D-06    0.105719D-16    0.421447D+00
   0   168    0.275587D-20    0.558004D-06    0.167393D-17    0.421447D+00
   0   169    0.696355D-21    0.354293D-06    0.237198D-18    0.421447D+00
   0   170    0.179103D-21    0.224863D-06    0.177906D-18    0.421447D+00
   0   171    0.466192D-22    0.142666D-06    0.508155D-19    0.421447D+00
   0   172    0.119907D-22    0.904861D-07    0.560950D-20    0.421447D+00
   0   173    0.301084D-23    0.573743D-07    0.424131D-20    0.421447D+00
   0   174    0.746853D-24    0.363696D-07    0.257180D-21    0.421447D+00
   0   175    0.182460D-24    0.230492D-07    0.266165D-21    0.421447D+00
   0   176    0.448851D-25    0.146042D-07    0.404374D-22    0.421447D+00
   0   177    0.110273D-25    0.925158D-08    0.340894D-23    0.421447D+00
   0   178    0.279252D-26    0.585969D-08    0.111561D-23    0.421447D+00
   0   179    0.690266D-27    0.371075D-08    0.402303D-24    0.421447D+00
   0   180    0.171071D-27    0.234954D-08    0.238185D-24    0.421447D+00
   0   181    0.429447D-28    0.148746D-08    0.405628D-25    0.421447D+00
   0   182    0.108688D-28    0.941570D-09    0.143717D-25    0.421447D+00
   0   183    0.264321D-29    0.595951D-09    0.222308D-26    0.421447D+00
   0   184    0.640174D-30    0.377157D-09    0.407591D-27    0.421447D+00
   0   185    0.150829D-30    0.238667D-09    0.637227D-28    0.421447D+00
   0   186    0.362054D-31    0.151017D-09    0.261819D-28    0.421447D+00
   0   187    0.895357D-32    0.955481D-10    0.109389D-28    0.421447D+00
   0   188    0.220213D-32    0.604487D-10    0.202943D-29    0.421447D+00
   0   189    0.536384D-33    0.382404D-10    0.198333D-30    0.421447D+00
   0   190    0.130885D-33    0.241897D-10    0.132878D-30    0.421447D+00
   0   191    0.311378D-34    0.153007D-10    0.396501D-31    0.421447D+00
   0   192    0.761680D-35    0.967769D-11    0.195713D-32    0.421447D+00
   0   193    0.184481D-35    0.612082D-11    0.721331D-33    0.421447D+00
   0   194    0.445104D-36    0.387104D-11    0.574574D-33    0.421447D+00
   0   195    0.106378D-36    0.244808D-11    0.456364D-34    0.421447D+00
   0   196    0.259398D-37    0.154813D-11    0.964319D-35    0.421447D+00
   0   197    0.604203D-38    0.978979D-12    0.325810D-35    0.421447D+00
   0   198    0.142590D-38    0.619047D-12    0.150214D-35    0.421447D+00
   0   199    0.345873D-39    0.391434D-12    0.167223D-36    0.421447D+00
   0   200    0.843007D-40    0.247503D-12    0.861969D-37    0.421447D+00
   0   201    0.199366D-40    0.156490D-12    0.139110D-37    0.421447D+00
   0   202    0.479385D-41    0.989423D-13    0.471378D-38    0.421447D+00
   0   203    0.114350D-41    0.625552D-13    0.796520D-39    0.421447D+00
   0   204    0.273188D-42    0.395487D-13    0.311191D-39    0.421447D+00
   0   205    0.659036D-43    0.250027D-13    0.647365D-40    0.421447D+00
   0   206    0.156215D-43    0.158063D-13    0.169996D-40    0.421447D+00
   0   207    0.378858D-44    0.999213D-14    0.542983D-41    0.421447D+00
   0   208    0.912540D-45    0.631644D-14    0.979622D-42    0.421447D+00
   0   209    0.217518D-45    0.399275D-14    0.121269D-42    0.421447D+00
   0   210    0.524462D-46    0.252380D-14    0.704254D-43    0.421447D+00
   0   211    0.126260D-46    0.159522D-14    0.921468D-44    0.421447D+00
   0   212    0.300757D-47    0.100825D-14    0.249367D-44    0.421447D+00
   0   213    0.714879D-48    0.637230D-15    0.638675D-45    0.421447D+00
   0   214    0.164971D-48    0.402718D-15    0.254836D-45    0.421447D+00
   0   215    0.394963D-49    0.254496D-15    0.367494D-46    0.421447D+00
   0   216    0.937883D-50    0.160818D-15    0.568992D-47    0.421447D+00
   0   217    0.226542D-50    0.101615D-15    0.885338D-48    0.421447D+00
   0   218    0.553634D-51    0.642023D-16    0.732948D-48    0.421447D+00
   0   219    0.130869D-51    0.405607D-16    0.154524D-48    0.421447D+00
   0   220    0.302813D-52    0.256224D-16    0.405922D-49    0.421447D+00
   0   221    0.727351D-53    0.161841D-16    0.656884D-50    0.421447D+00
   0   222    0.175955D-53    0.102214D-16    0.771254D-51    0.421447D+00
   0   223    0.407065D-54    0.645470D-17    0.493305D-51    0.421447D+00
   0   224    0.941731D-55    0.407551D-17    0.131060D-51    0.421447D+00
   0   225    0.223817D-55    0.257290D-17    0.160736D-52    0.421447D+00
   0   226    0.530063D-56    0.162402D-17    0.712262D-53    0.421447D+00
   0   227    0.123586D-56    0.102490D-17    0.134545D-53    0.421447D+00
   0   228    0.292903D-57    0.646670D-18    0.329200D-54    0.421447D+00
   0   229    0.696858D-58    0.407936D-18    0.621749D-55    0.421447D+00
   0   230    0.166781D-58    0.257276D-18    0.680677D-56    0.421447D+00
   0   231    0.375891D-59    0.162217D-18    0.355864D-56    0.421447D+00
   0   232    0.884850D-60    0.102253D-18    0.631567D-57    0.421447D+00
   0   233    0.212273D-60    0.644355D-19    0.118172D-57    0.421447D+00
   0   234    0.507327D-61    0.405917D-19    0.543482D-58    0.421447D+00
   0   235    0.118090D-61    0.255624D-19    0.586509D-59    0.421447D+00
   0   236    0.276179D-62    0.160920D-19    0.316334D-59    0.421447D+00
   0   237    0.656717D-63    0.101262D-19    0.754309D-60    0.421447D+00
   0   238    0.157088D-63    0.636955D-20    0.155676D-60    0.421447D+00
   0   239    0.379261D-64    0.400479D-20    0.146234D-61    0.421447D+00
   0   240    0.873915D-65    0.251681D-20    0.115182D-61    0.421447D+00
   0   241    0.206108D-65    0.158091D-20    0.157395D-62    0.421447D+00
   0   242    0.496534D-66    0.992527D-21    0.424922D-63    0.421447D+00
   0   243    0.117748D-66    0.622791D-21    0.356836D-64    0.421447D+00
   0   244    0.285054D-67    0.390567D-21    0.291228D-64    0.421447D+00
   0   245    0.670604D-68    0.244789D-21    0.484422D-65    0.421447D+00
   0   246    0.154516D-68    0.153326D-21    0.613579D-66    0.421447D+00
   0   247    0.358385D-69    0.959758D-22    0.477888D-66    0.421447D+00
   0   248    0.848661D-70    0.600363D-22    0.475813D-67    0.421447D+00
   0   249    0.200746D-70    0.375285D-22    0.229878D-67    0.421447D+00
   0   250    0.477268D-71    0.234419D-22    0.671118D-68    0.421447D+00
   0   251    0.111051D-71    0.146318D-22    0.154851D-68    0.421447D+00
   0   252    0.260717D-72    0.912569D-23    0.374378D-69    0.421447D+00
   0   253    0.611820D-73    0.568701D-23    0.214084D-70    0.421447D+00
   0   254    0.149326D-73    0.354113D-23    0.178214D-70    0.421447D+00
   0   255    0.344072D-74    0.220308D-23    0.416624D-71    0.421447D+00
   0   256    0.805030D-75    0.136942D-23    0.970012D-72    0.421447D+00
   0   257    0.192874D-75    0.850455D-24    0.486797D-73    0.421447D+00
   0   258    0.450641D-76    0.527674D-24    0.616710D-73    0.421447D+00
   0   259    0.106232D-76    0.327091D-24    0.543933D-74    0.421447D+00
   0   260    0.251933D-77    0.202559D-24    0.220071D-74    0.421447D+00
   0   261    0.584478D-78    0.125315D-24    0.371511D-75    0.421447D+00
   0   262    0.138333D-78    0.774492D-25    0.174205D-75    0.421447D+00
   0   263    0.320722D-79    0.478171D-25    0.308293D-76    0.421447D+00
   0   264    0.743857D-80    0.294912D-25    0.110331D-76    0.421447D+00
   0   265    0.176664D-80    0.181693D-25    0.227082D-77    0.421447D+00
   0   266    0.417970D-81    0.111817D-25    0.429762D-78    0.421447D+00
   0   267    0.101813D-81    0.687387D-26    0.469007D-79    0.421447D+00
   0   268    0.236671D-82    0.422090D-26    0.189484D-79    0.421447D+00
   0   269    0.557539D-83    0.258890D-26    0.399424D-80    0.421447D+00
   0   270    0.132327D-83    0.158607D-26    0.824848D-81    0.421447D+00
   0   271    0.312523D-84    0.970553D-27    0.230842D-81    0.421447D+00
   0   272    0.727939D-85    0.593201D-27    0.804633D-82    0.421447D+00
   0   273    0.174983D-85    0.362128D-27    0.853264D-83    0.421447D+00
   0   274    0.414899D-86    0.220798D-27    0.414451D-83    0.421447D+00
   0   275    0.967117D-87    0.134461D-27    0.288951D-84    0.421447D+00
   0   276    0.228167D-87    0.817817D-28    0.115294D-84    0.421447D+00
   0   277    0.535184D-88    0.496789D-28    0.688610D-85    0.421447D+00
   0   278    0.124979D-88    0.301397D-28    0.184882D-85    0.421447D+00
   0   279    0.303119D-89    0.182621D-28    0.218705D-86    0.421447D+00
   0   280    0.740966D-90    0.110511D-28    0.968216D-87    0.421447D+00
   0   281    0.169010D-90    0.667871D-29    0.651228D-88    0.421447D+00
   0   282    0.390570D-91    0.403101D-29    0.328664D-88    0.421447D+00
   0   283    0.899089D-92    0.242975D-29    0.454513D-89    0.421447D+00
   0   284    0.210469D-92    0.146263D-29    0.253238D-89    0.421447D+00
   0   285    0.499382D-93    0.879278D-30    0.518801D-90    0.421447D+00
   0   286    0.118302D-93    0.527879D-30    0.117887D-90    0.421447D+00
   0   287    0.280936D-94    0.316487D-30    0.369351D-91    0.421447D+00
   0   288    0.646676D-95    0.189490D-30    0.531334D-92    0.421447D+00
   0   289    0.153074D-95    0.113298D-30    0.180661D-92    0.421447D+00
   0   290    0.353273D-96    0.676491D-31    0.464924D-93    0.421447D+00
   0   291    0.810394D-97    0.403368D-31    0.106181D-93    0.421447D+00
   0   292    0.191034D-97    0.240181D-31    0.218682D-94    0.421447D+00
   0   293    0.436611D-98    0.142814D-31    0.483085D-95    0.421447D+00
   0   294    0.102023D-98    0.847999D-32    0.112609D-95    0.421447D+00
   0   295    0.243945D-99    0.502816D-32    0.340330D-96    0.421447D+00
   0   296    0.568129-100    0.297722D-32    0.489728D-97    0.421447D+00
   0   297    0.133477-100    0.176034D-32    0.453965D-98    0.421447D+00
   0   298    0.316248-101    0.103936D-32    0.166864D-98    0.421447D+00
   0   299    0.744610-102    0.612800D-33    0.584861D-99    0.421447D+00
   0   300    0.178440-102    0.360786D-33    0.515458-100    0.421447D+00
   0   301    0.406323-103    0.212108D-33    0.448192-100    0.421447D+00
   0   302    0.985442-104    0.124521D-33    0.454513-101    0.421447D+00
   0   303    0.229575-104    0.729960D-34    0.254603-101    0.421447D+00
   0   304    0.548988-105    0.427297D-34    0.389385-102    0.421447D+00
   0   305    0.127383-105    0.249765D-34    0.816159-103    0.421447D+00
   0   306    0.292339-106    0.145782D-34    0.212759-103    0.421447D+00
   0   307    0.690778-107    0.849655D-35    0.437227-104    0.421447D+00
   0   308    0.158263-107    0.494481D-35    0.222954-104    0.421447D+00
   0   309    0.374805-108    0.287358D-35    0.216631-105    0.421447D+00
   0   310    0.882795-109    0.166748D-35    0.119872-105    0.421447D+00
   0   311    0.205507-109    0.966189D-36    0.127398-106    0.421447D+00
   0   312    0.480503-110    0.559019D-36    0.578682-107    0.421447D+00
   0   313    0.116490-110    0.322963D-36    0.113173-107    0.421447D+00
   0   314    0.272497-111    0.186311D-36    0.252370-108    0.421447D+00
   0   315    0.623643-112    0.107321D-36    0.872242-109    0.421447D+00
   0   316    0.146477-112    0.617295D-37    0.100103-109    0.421447D+00
   0   317    0.343101-113    0.354533D-37    0.295054-110    0.421447D+00
   0   318    0.791955-114    0.203320D-37    0.886549-111    0.421447D+00
   0   319    0.188916-114    0.116428D-37    0.142356-111    0.421447D+00
   0   320    0.446242-115    0.665725D-38    0.407164-112    0.421447D+00
   0   321    0.105502-115    0.380090D-38    0.100398-112    0.421447D+00
   0   322    0.253661-116    0.216687D-38    0.251704-113    0.421447D+00
   0   323    0.606720-117    0.123349D-38    0.312342-114    0.421447D+00
   0   324    0.143250-117    0.701119D-39    0.142289-114    0.421447D+00
   0   325    0.328448-118    0.397925D-39    0.173838-115    0.421447D+00
   0   326    0.781911-119    0.225510D-39    0.716424-116    0.421447D+00
   0   327    0.173723-119    0.127609D-39    0.125492-116    0.421447D+00
   0   328    0.411331-120    0.721026D-40    0.481672-117    0.421447D+00
   0   329    0.985362-121    0.406792D-40    0.673668-118    0.421447D+00
   0   330    0.235024-121    0.229164D-40    0.117937-118    0.421447D+00
   0   331    0.529829-122    0.128906D-40    0.281137-119    0.421447D+00
   0   332    0.123740-122    0.724017D-41    0.105652-119    0.421447D+00
   0   333    0.293068-123    0.406048D-41    0.240636-120    0.421447D+00
   0   334    0.701891-124    0.227383D-41    0.286070-121    0.421447D+00
   0   335    0.166785-124    0.127142D-41    0.211554-121    0.421447D+00
   0   336    0.395619-125    0.709855D-42    0.411970-122    0.421447D+00
   0   337    0.891186-126    0.395733D-42    0.956399-123    0.421447D+00
   0   338    0.203402-126    0.220285D-42    0.142908-123    0.421447D+00
   0   339    0.482322-127    0.122439D-42    0.447081-124    0.421447D+00
   0   340    0.112910-127    0.679521D-43    0.136102-124    0.421447D+00
   0   341    0.268756-128    0.376562D-43    0.129390-125    0.421447D+00
   0   342    0.624433-129    0.208364D-43    0.241554-126    0.421447D+00
   0   343    0.146724-129    0.115122D-43    0.146464-126    0.421447D+00
   0   344    0.336568-130    0.635100D-44    0.137367-127    0.421447D+00
   0   345    0.826936-131    0.349847D-44    0.269733-128    0.421447D+00
   0   346    0.194906-131    0.192426D-44    0.278658-128    0.421447D+00
   0   347    0.456398-132    0.105682D-44    0.270114-129    0.421447D+00
   0   348    0.107165-132    0.579545D-45    0.119036-129    0.421447D+00
   0   349    0.248504-133    0.317340D-45    0.192652-130    0.421447D+00
   0   350    0.608275-134    0.173505D-45    0.311597-131    0.421447D+00
   0   351    0.138012-134    0.947223D-46    0.546463-132    0.421447D+00
   0   352    0.324371-135    0.516347D-46    0.302194-132    0.421447D+00
   0   353    0.755449-136    0.281049D-46    0.721432-133    0.421447D+00
   0   354    0.180011-136    0.152748D-46    0.659676-134    0.421447D+00
   0   355    0.434633-137    0.828928D-47    0.533368-134    0.421447D+00
   0   356    0.101315-137    0.449171D-47    0.972925-135    0.421447D+00
   0   357    0.237932-138    0.243028D-47    0.178105-135    0.421447D+00
   0   358    0.560164-139    0.131297D-47    0.345901-136    0.421447D+00
   0   359    0.130655-139    0.708278D-48    0.685482-137    0.421447D+00
   0   360    0.306547-140    0.381509D-48    0.184107-137    0.421447D+00
   0   361    0.736258-141    0.205191D-48    0.503860-138    0.421447D+00
   0   362    0.169539-141    0.110196D-48    0.660519-139    0.421447D+00
   0   363    0.399466-142    0.590912D-49    0.300386-139    0.421447D+00
   0   364    0.931610-143    0.316398D-49    0.698501-140    0.421447D+00
   0   365    0.221342-143    0.169160D-49    0.798783-141    0.421447D+00
   0   366    0.519837-144    0.903060D-50    0.521983-141    0.421447D+00
   0   367    0.122863-144    0.481380D-50    0.442782-142    0.421447D+00
   0   368    0.290461-145    0.256220D-50    0.276766-142    0.421447D+00
   0   369    0.676554-146    0.136174D-50    0.369392-143    0.421447D+00
   0   370    0.154113-146    0.722647D-51    0.115529-143    0.421447D+00
   0   371    0.369763-147    0.382926D-51    0.386303-144    0.421447D+00
   0   372    0.891345-148    0.202608D-51    0.524945-145    0.421447D+00
   0   373    0.210086-148    0.107042D-51    0.273895-145    0.421447D+00
   0   374    0.487904-149    0.564689D-52    0.661672-146    0.421447D+00
   0   375    0.113160-149    0.297453D-52    0.882697-147    0.421447D+00
   0   376    0.259092-150    0.156453D-52    0.365192-147    0.421447D+00
   0   377    0.631765-151    0.821686D-53    0.577960-148    0.421447D+00
   0   378    0.145129-151    0.430907D-53    0.831882-149    0.421447D+00
   0   379    0.342235-152    0.225642D-53    0.179320-149    0.421447D+00
   0   380    0.777781-153    0.117981D-53    0.908028-150    0.421447D+00
   0   381    0.181213-153    0.615973D-54    0.153413-150    0.421447D+00
   0   382    0.415890-154    0.321122D-54    0.517059-151    0.421447D+00
   0   383    0.975039-155    0.167161D-54    0.107058-151    0.421447D+00
   0   384    0.233148-155    0.868881D-55    0.170553-152    0.421447D+00
   0   385    0.521296-156    0.450966D-55    0.778106-153    0.421447D+00
   0   386    0.121161-156    0.233715D-55    0.734414-154    0.421447D+00
   0   387    0.284248-157    0.120945D-55    0.972053-155    0.421447D+00
   0   388    0.680731-158    0.624958D-56    0.170168-155    0.421447D+00
   0   389    0.155387-158    0.322458D-56    0.216144-155    0.421447D+00
   0   390    0.359523-159    0.166133D-56    0.490374-156    0.421447D+00
   0   391    0.836467-160    0.854669D-57    0.462740-157    0.421447D+00
   0   392    0.197555-160    0.439033D-57    0.233734-157    0.421447D+00
   0   393    0.447035-161    0.225185D-57    0.228493-158    0.421447D+00
   0   394    0.100871-161    0.115312D-57    0.585640-159    0.421447D+00
   0   395    0.229777-162    0.589253D-58    0.119873-159    0.421447D+00
   0   396    0.539333-163    0.299941D-58    0.594079-160    0.421447D+00
   0   397    0.122024-163    0.151006D-58    0.484182-161    0.421447D+00