variables =  "IG"  "JG"  "PHI"  "Temp."  "Latent_heat"  "mm"
ZONE  I=  401  J=  101
   0     0    0.100000D+01    0.921001D+00    0.000000D+00    0.191544D+00
   0     1    0.100000D+01    0.921001D+00    0.000000D+00    0.191544D+00
   0     2    0.100000D+01    0.921151D+00    0.000000D+00    0.191279D+00
   0     3    0.100000D+01    0.921452D+00    0.000000D+00    0.190748D+00
   0     4    0.100000D+01    0.921901D+00    0.000000D+00    0.189950D+00
   0     5    0.100000D+01    0.922499D+00    0.000000D+00    0.188882D+00
   0     6    0.100000D+01    0.923244D+00    0.000000D+00    0.187544D+00
   0     7    0.100000D+01    0.924134D+00    0.000000D+00    0.185933D+00
   0     8    0.100000D+01    0.925168D+00    0.000000D+00    0.184044D+00
   0     9    0.100000D+01    0.926343D+00    0.000000D+00    0.181874D+00
   0    10    0.100000D+01    0.927657D+00    0.000000D+00    0.179418D+00
   0    11    0.100000D+01    0.929107D+00    0.000000D+00    0.176673D+00
   0    12    0.100000D+01    0.930690D+00    0.000000D+00    0.173632D+00
   0    13    0.100000D+01    0.932403D+00    0.000000D+00    0.170291D+00
   0    14    0.100000D+01    0.934242D+00    0.000000D+00    0.166643D+00
   0    15    0.100000D+01    0.936205D+00    0.000000D+00    0.162682D+00
   0    16    0.100000D+01    0.938287D+00    0.000000D+00    0.158402D+00
   0    17    0.100000D+01    0.940485D+00    0.000000D+00    0.153796D+00
   0    18    0.100000D+01    0.942796D+00    0.000000D+00    0.148859D+00
   0    19    0.100000D+01    0.945215D+00    0.000000D+00    0.143582D+00
   0    20    0.100000D+01    0.947740D+00    0.000000D+00    0.137960D+00
   0    21    0.100000D+01    0.950367D+00    0.000000D+00    0.131985D+00
   0    22    0.100000D+01    0.953094D+00    0.000000D+00    0.125649D+00
   0    23    0.100000D+01    0.955919D+00   -0.133227D-10    0.118944D+00
   0    24    0.100000D+01    0.958841D+00    0.119904D-09    0.111859D+00
   0    25    0.100000D+01    0.961861D+00   -0.612843D-09    0.104382D+00
   0    26    0.100000D+01    0.964983D+00   -0.599520D-09    0.964956D-01
   0    27    0.100000D+01    0.968210D+00   -0.296163D-07    0.881773D-01
   0    28    0.100000D+01    0.971554D+00   -0.156395D-06    0.793956D-01
   0    29    0.100000D+01    0.975028D+00   -0.455143D-06    0.701073D-01
   0    30    0.100000D+01    0.978652D+00    0.507601D-05    0.602528D-01
   0    31    0.100000D+01    0.982457D+00   -0.581782D-04    0.497507D-01
   0    32    0.999999D+00    0.986483D+00   -0.649938D-04    0.384910D-01
   0    33    0.999993D+00    0.990785D+00    0.681556D-03    0.263260D-01
   0    34    0.999954D+00    0.995439D+00    0.146420D-01    0.130554D-01
   0    35    0.999716D+00    0.100056D+01    0.499393D-01   -0.161480D-02
   0    36    0.998274D+00    0.100638D+01    0.847401D+00   -0.182471D-01
   0    37    0.990000D+00    0.101338D+01    0.139427D+01   -0.379826D-01
   0    38    0.943458D+00    0.102247D+01    0.697141D+01   -0.634040D-01
   0    39    0.719936D+00    0.103272D+01   -0.377652D+01   -0.898005D-01
   0    40    0.189360D+00    0.103398D+01   -0.206121D+02   -0.940345D-01
   0    41    0.434504D-01    0.102786D+01    0.244630D+02   -0.775945D-01
   0    42    0.149489D-01    0.102119D+01    0.401875D+01   -0.600991D-01
   0    43    0.872358D-02    0.101690D+01    0.228481D+00   -0.476475D-01
   0    44    0.829756D-02    0.101272D+01   -0.191870D+01   -0.359477D-01
   0    45    0.889603D-02    0.100992D+01    0.522283D+01   -0.286956D-01
   0    46    0.100152D-01    0.100923D+01   -0.802065D-01   -0.260167D-01
   0    47    0.104585D-01    0.100668D+01   -0.152085D+01   -0.192439D-01
   0    48    0.108563D-01    0.100561D+01   -0.614147D+01   -0.161814D-01
   0    49    0.113259D-01    0.100430D+01   -0.553085D+01   -0.123786D-01
   0    50    0.115781D-01    0.100318D+01   -0.288687D+01   -0.921881D-02
   0    51    0.114521D-01    0.100213D+01    0.314706D+00   -0.591743D-02
   0    52    0.115870D-01    0.100254D+01    0.876629D+00   -0.762975D-02
   0    53    0.118256D-01    0.100191D+01    0.550296D+01   -0.557105D-02
   0    54    0.122186D-01    0.100187D+01    0.508326D+00   -0.571829D-02
   0    55    0.121511D-01    0.100134D+01    0.422047D+01   -0.392371D-02
   0    56    0.125752D-01    0.100163D+01   -0.770867D+00   -0.534453D-02
   0    57    0.130638D-01    0.100150D+01    0.199888D+01   -0.379542D-02
   0    58    0.131425D-01    0.100066D+01    0.495087D+01   -0.226569D-02
   0    59    0.129852D-01    0.100067D+01   -0.136801D+01   -0.220357D-02
   0    60    0.127604D-01    0.100054D+01   -0.136647D+01   -0.152448D-02
   0    61    0.130500D-01    0.100035D+01   -0.357232D+01   -0.719081D-03
   0    62    0.133264D-01    0.999954D+00   -0.745548D+01   -0.119093D-03
   0    63    0.132298D-01    0.100019D+01    0.386169D+01    0.779306D-04
   0    64    0.137128D-01    0.100008D+01   -0.325507D+01   -0.802766D-03
   0    65    0.142146D-01    0.998850D+00    0.604215D+01    0.309406D-02
   0    66    0.140658D-01    0.997876D+00    0.311755D+00    0.554340D-02
   0    67    0.138446D-01    0.997390D+00    0.721765D+01    0.723741D-02
   0    68    0.141088D-01    0.997290D+00   -0.363905D+01    0.839224D-02
   0    69    0.146171D-01    0.997522D+00    0.217515D+01    0.689200D-02
   0    70    0.140146D-01    0.999154D+00   -0.399170D+01    0.240334D-02
   0    71    0.145873D-01    0.997940D+00    0.197452D+01    0.581512D-02
   0    72    0.140633D-01    0.997770D+00    0.345649D+01    0.602139D-02
   0    73    0.146050D-01    0.996642D+00   -0.846502D+00    0.103474D-01
   0    74    0.148073D-01    0.996578D+00    0.457862D+01    0.933866D-02
   0    75    0.150608D-01    0.995327D+00   -0.692709D+01    0.133744D-01
   0    76    0.149329D-01    0.996035D+00    0.984718D+00    0.110288D-01
   0    77    0.151501D-01    0.996347D+00   -0.398654D+00    0.105560D-01
   0    78    0.146170D-01    0.995222D+00    0.491607D+01    0.134942D-01
   0    79    0.152043D-01    0.995039D+00    0.135476D+01    0.142105D-01
   0    80    0.153470D-01    0.995339D+00    0.836412D+00    0.128716D-01
   0    81    0.149504D-01    0.996090D+00    0.266345D+01    0.108343D-01
   0    82    0.150313D-01    0.996722D+00    0.307372D+01    0.877935D-02
   0    83    0.151182D-01    0.996862D+00   -0.629659D+01    0.855866D-02
   0    84    0.151530D-01    0.996412D+00    0.883380D+01    0.102374D-01
   0    85    0.150197D-01    0.996539D+00   -0.358641D+01    0.971244D-02
   0    86    0.149601D-01    0.995572D+00    0.850393D+01    0.133455D-01
   0    87    0.150078D-01    0.995718D+00    0.446382D+01    0.119065D-01
   0    88    0.149457D-01    0.996494D+00   -0.529356D+01    0.997621D-02
   0    89    0.155918D-01    0.996747D+00   -0.830473D+01    0.975133D-02
   0    90    0.152697D-01    0.997262D+00    0.312170D+01    0.840815D-02
   0    91    0.153523D-01    0.996642D+00   -0.889651D+01    0.946871D-02
   0    92    0.150802D-01    0.995637D+00   -0.961148D+00    0.118503D-01
   0    93    0.152606D-01    0.994911D+00    0.245736D+01    0.147122D-01
   0    94    0.149967D-01    0.996038D+00    0.535825D+01    0.115211D-01
   0    95    0.153802D-01    0.996023D+00    0.873742D+00    0.109077D-01
   0    96    0.154315D-01    0.996822D+00   -0.222375D+01    0.922161D-02
   0    97    0.152149D-01    0.995738D+00    0.624130D+00    0.116867D-01
   0    98    0.154646D-01    0.995422D+00    0.578742D+01    0.127535D-01
   0    99    0.154313D-01    0.996837D+00   -0.707701D+01    0.834744D-02
   0   100    0.148475D-01    0.996845D+00    0.208452D+01    0.834651D-02
   0   101    0.150125D-01    0.996788D+00    0.774100D+01    0.853224D-02
   0   102    0.154768D-01    0.995987D+00    0.412584D+01    0.118888D-01
   0   103    0.155575D-01    0.996525D+00   -0.219689D+01    0.103893D-01
   0   104    0.154977D-01    0.996440D+00    0.283446D+01    0.943119D-02
   0   105    0.157893D-01    0.997103D+00   -0.448500D+01    0.825577D-02
   0   106    0.154030D-01    0.995977D+00   -0.551558D+01    0.108774D-01
   0   107    0.153424D-01    0.996123D+00   -0.277536D+01    0.106872D-01
   0   108    0.151973D-01    0.995924D+00    0.384641D+01    0.108406D-01
   0   109    0.152488D-01    0.995985D+00   -0.837762D+01    0.121817D-01
   0   110    0.154233D-01    0.996867D+00   -0.809459D+01    0.930113D-02
   0   111    0.154315D-01    0.996054D+00    0.662591D+01    0.110804D-01
   0   112    0.155827D-01    0.995449D+00   -0.389500D+01    0.128983D-01
   0   113    0.158093D-01    0.996271D+00   -0.408877D+01    0.107609D-01
   0   114    0.155023D-01    0.994628D+00   -0.309666D+01    0.155484D-01
   0   115    0.154855D-01    0.994772D+00   -0.207300D+01    0.144035D-01
   0   116    0.153395D-01    0.995264D+00   -0.994733D+00    0.141983D-01
   0   117    0.151946D-01    0.996405D+00    0.126134D+01    0.967291D-02
   0   118    0.153970D-01    0.996902D+00   -0.735672D+01    0.859211D-02
   0   119    0.152894D-01    0.996781D+00   -0.127350D+01    0.885998D-02
   0   120    0.154180D-01    0.996165D+00   -0.854523D+00    0.107804D-01
   0   121    0.152391D-01    0.996114D+00    0.259657D+01    0.108571D-01
   0   122    0.156021D-01    0.996148D+00   -0.624429D+01    0.103536D-01
   0   123    0.157158D-01    0.996465D+00   -0.179668D+01    0.100584D-01
   0   124    0.153274D-01    0.997456D+00   -0.725334D+01    0.788388D-02
   0   125    0.156224D-01    0.994790D+00    0.552273D+01    0.143423D-01
   0   126    0.152873D-01    0.994925D+00   -0.418242D+01    0.138622D-01
   0   127    0.150924D-01    0.996177D+00    0.612089D+01    0.114227D-01
   0   128    0.154995D-01    0.996548D+00    0.669398D+01    0.988701D-02
   0   129    0.152711D-01    0.995935D+00   -0.456261D+01    0.122216D-01
   0   130    0.153451D-01    0.995495D+00   -0.345416D+01    0.122408D-01
   0   131    0.154523D-01    0.995858D+00   -0.611812D+01    0.115993D-01
   0   132    0.155725D-01    0.995868D+00   -0.227259D+01    0.112319D-01
   0   133    0.156159D-01    0.996793D+00   -0.839777D+01    0.966956D-02
   0   134    0.153479D-01    0.996780D+00    0.937237D+01    0.973737D-02
   0   135    0.155317D-01    0.996729D+00    0.479149D+00    0.903686D-02
   0   136    0.156299D-01    0.997040D+00   -0.544545D+01    0.771384D-02
   0   137    0.153001D-01    0.996799D+00    0.499486D+01    0.959436D-02
   0   138    0.156007D-01    0.996480D+00    0.327479D+01    0.979116D-02
   0   139    0.155170D-01    0.995769D+00   -0.631990D+01    0.115987D-01
   0   140    0.155052D-01    0.996132D+00   -0.191299D+01    0.107269D-01
   0   141    0.154719D-01    0.995584D+00    0.551886D+01    0.125729D-01
   0   142    0.156074D-01    0.996275D+00   -0.480072D+01    0.102039D-01
   0   143    0.150457D-01    0.995629D+00   -0.336898D+00    0.128760D-01
   0   144    0.153659D-01    0.996679D+00   -0.471189D+01    0.935687D-02
   0   145    0.154030D-01    0.996251D+00   -0.759767D+01    0.100021D-01
   0   146    0.153279D-01    0.995097D+00    0.205684D+01    0.139296D-01
   0   147    0.153870D-01    0.996576D+00    0.750631D+01    0.983935D-02
   0   148    0.157703D-01    0.997802D+00   -0.601944D+01    0.669594D-02
   0   149    0.153539D-01    0.996031D+00   -0.465213D+01    0.116888D-01
   0   150    0.147864D-01    0.996545D+00    0.183375D+01    0.990718D-02
   0   151    0.146879D-01    0.996105D+00    0.811054D+01    0.117575D-01
   0   152    0.150721D-01    0.996919D+00   -0.183137D+01    0.918931D-02
   0   153    0.153760D-01    0.997077D+00    0.203543D+01    0.830899D-02
   0   154    0.154244D-01    0.997639D+00   -0.864578D+01    0.742610D-02
   0   155    0.153883D-01    0.995449D+00   -0.139686D+01    0.127520D-01
   0   156    0.150926D-01    0.996424D+00    0.131911D+00    0.970095D-02
   0   157    0.151833D-01    0.997100D+00    0.297180D+01    0.851797D-02
   0   158    0.150730D-01    0.996714D+00   -0.310370D+01    0.962377D-02
   0   159    0.150757D-01    0.996659D+00    0.286061D+01    0.988168D-02
   0   160    0.151291D-01    0.996935D+00   -0.657150D+01    0.852666D-02
   0   161    0.151026D-01    0.997622D+00    0.631641D+01    0.701714D-02
   0   162    0.153138D-01    0.997435D+00    0.236626D+01    0.698687D-02
   0   163    0.151006D-01    0.998143D+00    0.717101D+01    0.482528D-02
   0   164    0.152335D-01    0.997290D+00   -0.542759D+00    0.756858D-02
   0   165    0.147851D-01    0.997759D+00   -0.402795D+00    0.668894D-02
   0   166    0.150139D-01    0.996295D+00   -0.806598D+01    0.113492D-01
   0   167    0.151527D-01    0.996591D+00    0.590331D+01    0.976498D-02
   0   168    0.148777D-01    0.996207D+00    0.297467D+01    0.101831D-01
   0   169    0.148356D-01    0.996657D+00   -0.306251D+01    0.914146D-02
   0   170    0.147843D-01    0.996156D+00    0.359018D+01    0.109925D-01
   0   171    0.147223D-01    0.996537D+00   -0.465608D+01    0.102901D-01
   0   172    0.151674D-01    0.997243D+00    0.383677D+01    0.835345D-02
   0   173    0.149439D-01    0.998229D+00    0.715931D+01    0.516739D-02
   0   174    0.147289D-01    0.997757D+00    0.380941D+01    0.670908D-02
   0   175    0.147234D-01    0.997634D+00    0.613033D+01    0.731443D-02
   0   176    0.144744D-01    0.997889D+00   -0.262277D+01    0.663149D-02
   0   177    0.149588D-01    0.997703D+00   -0.532313D+01    0.633747D-02
   0   178    0.148815D-01    0.997716D+00    0.237108D+01    0.653795D-02
   0   179    0.145429D-01    0.997689D+00   -0.225381D+00    0.675689D-02
   0   180    0.145584D-01    0.998298D+00    0.432380D+01    0.454945D-02
   0   181    0.148877D-01    0.997460D+00   -0.764511D+01    0.705424D-02
   0   182    0.146334D-01    0.997145D+00    0.705226D+00    0.864798D-02
   0   183    0.151398D-01    0.996923D+00   -0.872987D+01    0.830632D-02
   0   184    0.145434D-01    0.997228D+00   -0.570231D+01    0.823701D-02
   0   185    0.145683D-01    0.996894D+00   -0.231610D+01    0.822892D-02
   0   186    0.143368D-01    0.996363D+00   -0.807473D+01    0.103834D-01
   0   187    0.147110D-01    0.997311D+00   -0.429150D+00    0.708085D-02
   0   188    0.146650D-01    0.996894D+00   -0.183174D+01    0.829419D-02
   0   189    0.145647D-01    0.998251D+00   -0.275135D+01    0.464982D-02
   0   190    0.146343D-01    0.997506D+00   -0.687887D+01    0.712959D-02
   0   191    0.145299D-01    0.996477D+00   -0.712474D+01    0.986116D-02
   0   192    0.152075D-01    0.997469D+00    0.549873D+00    0.756641D-02
   0   193    0.146880D-01    0.998036D+00   -0.406466D+01    0.568691D-02
   0   194    0.146726D-01    0.998795D+00   -0.317460D+00    0.402571D-02
   0   195    0.151440D-01    0.998525D+00   -0.216670D+01    0.393450D-02
   0   196    0.143378D-01    0.998280D+00   -0.241199D+01    0.469505D-02
   0   197    0.147917D-01    0.998391D+00   -0.327704D+01    0.457172D-02
   0   198    0.146654D-01    0.997732D+00    0.837394D+01    0.696219D-02
   0   199    0.143232D-01    0.997584D+00   -0.899692D+00    0.692589D-02
   0   200    0.144791D-01    0.998188D+00    0.644727D+01    0.535314D-02
   0   201    0.147868D-01    0.997780D+00   -0.668529D+01    0.682445D-02
   0   202    0.143208D-01    0.997403D+00   -0.442922D+01    0.730107D-02
   0   203    0.142331D-01    0.997725D+00   -0.118213D+01    0.616355D-02
   0   204    0.143908D-01    0.997771D+00   -0.801456D+01    0.615403D-02
   0   205    0.144295D-01    0.997552D+00   -0.752231D+01    0.758123D-02
   0   206    0.142266D-01    0.997305D+00   -0.287994D+01    0.773974D-02
   0   207    0.143153D-01    0.997705D+00    0.568718D+01    0.636610D-02
   0   208    0.141758D-01    0.998183D+00   -0.528369D+01    0.589368D-02
   0   209    0.142888D-01    0.998640D+00   -0.286744D+01    0.441728D-02
   0   210    0.145169D-01    0.998237D+00   -0.520523D+01    0.453939D-02
   0   211    0.145661D-01    0.997866D+00    0.624432D+01    0.573342D-02
   0   212    0.145917D-01    0.997840D+00   -0.172634D+01    0.678868D-02
   0   213    0.141625D-01    0.996761D+00   -0.947644D-01    0.874628D-02
   0   214    0.142113D-01    0.997903D+00    0.228575D+01    0.577498D-02
   0   215    0.142222D-01    0.998361D+00   -0.840075D+01    0.401214D-02
   0   216    0.144305D-01    0.999464D+00   -0.549232D+01    0.156252D-02
   0   217    0.144678D-01    0.100028D+01   -0.111863D+01   -0.129129D-02
   0   218    0.142194D-01    0.100003D+01    0.668932D+01    0.124097D-03
   0   219    0.142589D-01    0.998771D+00    0.644817D+01    0.366282D-02
   0   220    0.140865D-01    0.998582D+00   -0.513615D+01    0.367890D-02
   0   221    0.139645D-01    0.997791D+00    0.669039D+01    0.585596D-02
   0   222    0.139966D-01    0.998882D+00   -0.625014D+01    0.245674D-02
   0   223    0.141360D-01    0.999306D+00    0.797225D+01    0.141691D-02
   0   224    0.140185D-01    0.998381D+00   -0.433722D+01    0.473655D-02
   0   225    0.136433D-01    0.998306D+00   -0.586459D+01    0.447929D-02
   0   226    0.135660D-01    0.997897D+00    0.506099D+01    0.684352D-02
   0   227    0.139949D-01    0.999055D+00   -0.526476D+01    0.204053D-02
   0   228    0.140273D-01    0.998776D+00   -0.258617D+01    0.297065D-02
   0   229    0.142282D-01    0.999159D+00   -0.296543D+01    0.238428D-02
   0   230    0.141843D-01    0.999475D+00   -0.151685D+01    0.848038D-03
   0   231    0.141206D-01    0.998702D+00   -0.599467D+00    0.411769D-02
   0   232    0.141319D-01    0.998168D+00    0.470166D+01    0.531681D-02
   0   233    0.142694D-01    0.997577D+00    0.748540D+01    0.659155D-02
   0   234    0.145112D-01    0.998064D+00    0.165875D+01    0.530143D-02
   0   235    0.141966D-01    0.997878D+00   -0.724308D+01    0.670947D-02
   0   236    0.143241D-01    0.997107D+00    0.138602D+00    0.803507D-02
   0   237    0.141332D-01    0.998966D+00    0.273952D+01    0.336869D-02
   0   238    0.143969D-01    0.998601D+00   -0.596565D+01    0.352167D-02
   0   239    0.142622D-01    0.998717D+00    0.413135D+00    0.368515D-02
   0   240    0.147597D-01    0.100006D+01   -0.608797D+01   -0.856209D-04
   0   241    0.144630D-01    0.999953D+00    0.533391D+01   -0.281121D-03
   0   242    0.148593D-01    0.999913D+00   -0.610974D+01    0.614948D-04
   0   243    0.144917D-01    0.998472D+00   -0.515049D+01    0.393769D-02
   0   244    0.147074D-01    0.998273D+00   -0.379995D+01    0.511914D-02
   0   245    0.147298D-01    0.997373D+00   -0.456576D+01    0.793678D-02
   0   246    0.143564D-01    0.997231D+00   -0.804255D+01    0.853635D-02
   0   247    0.140582D-01    0.996804D+00    0.233592D+01    0.930497D-02
   0   248    0.140166D-01    0.996897D+00    0.798716D+01    0.894252D-02
   0   249    0.142464D-01    0.997293D+00   -0.506024D+01    0.821136D-02
   0   250    0.145609D-01    0.997899D+00    0.976879D+00    0.604254D-02
   0   251    0.143466D-01    0.998664D+00   -0.546065D+01    0.433088D-02
   0   252    0.143253D-01    0.999373D+00    0.567529D+01    0.235531D-02
   0   253    0.142581D-01    0.998159D+00    0.898142D+01    0.461835D-02
   0   254    0.141770D-01    0.998106D+00    0.487328D+01    0.512945D-02
   0   255    0.140477D-01    0.999296D+00    0.657089D+01    0.275265D-02
   0   256    0.141235D-01    0.999533D+00    0.541144D+01    0.112973D-02
   0   257    0.138856D-01    0.999804D+00    0.560913D+01    0.778314D-03
   0   258    0.139149D-01    0.999022D+00   -0.507986D+01    0.290808D-02
   0   259    0.141947D-01    0.999182D+00    0.308629D+01    0.249784D-02
   0   260    0.137953D-01    0.997749D+00    0.629908D+01    0.700048D-02
   0   261    0.138459D-01    0.998442D+00    0.566704D+01    0.450904D-02
   0   262    0.136025D-01    0.999955D+00   -0.706368D+01    0.166805D-03
   0   263    0.142345D-01    0.999303D+00    0.580849D+01    0.166858D-02
   0   264    0.140555D-01    0.100009D+01    0.185507D+01   -0.895087D-03
   0   265    0.143820D-01    0.100003D+01    0.930706D+00   -0.167447D-03
   0   266    0.139870D-01    0.999834D+00   -0.252372D+01   -0.783609D-04
   0   267    0.142266D-01    0.998952D+00    0.430520D+01    0.372610D-02
   0   268    0.145275D-01    0.998129D+00   -0.731024D+01    0.485363D-02
   0   269    0.144733D-01    0.997439D+00    0.778940D+01    0.670722D-02
   0   270    0.147654D-01    0.997227D+00    0.690540D+01    0.745837D-02
   0   271    0.150274D-01    0.996224D+00   -0.164100D+01    0.101834D-01
   0   272    0.149313D-01    0.996484D+00    0.689175D+01    0.101524D-01
   0   273    0.153900D-01    0.995625D+00   -0.202062D+01    0.130455D-01
   0   274    0.157506D-01    0.993519D+00   -0.194972D+01    0.193645D-01
   0   275    0.169076D-01    0.991971D+00   -0.752201D+01    0.229872D-01
   0   276    0.185527D-01    0.987597D+00    0.425580D+00    0.356103D-01
   0   277    0.188923D-01    0.984285D+00    0.642220D+01    0.449458D-01
   0   278    0.209640D-01    0.974008D+00   -0.123845D+02    0.731470D-01
   0   279    0.243809D-01    0.958888D+00    0.503461D+01    0.111190D+00
   0   280    0.274745D-01    0.934286D+00   -0.703371D+00    0.166689D+00
   0   281    0.279768D-01    0.898370D+00    0.387307D+01    0.227300D+00
   0   282    0.239565D-01    0.844213D+00   -0.752210D+01    0.286988D+00
   0   283    0.161765D-01    0.764406D+00    0.606006D+01    0.335185D+00
   0   284    0.898600D-02    0.665534D+00    0.866061D+01    0.366887D+00
   0   285    0.421264D-02    0.556577D+00    0.138555D+01    0.386532D+00
   0   286    0.169747D-02    0.448992D+00    0.993999D+00    0.398615D+00
   0   287    0.665321D-03    0.351005D+00    0.452145D+00    0.406234D+00
   0   288    0.236906D-03    0.267133D+00    0.941211D-01    0.411170D+00
   0   289    0.799645D-04    0.198662D+00    0.492461D-01    0.414447D+00
   0   290    0.267499D-04    0.144810D+00    0.267038D-01    0.416662D+00
   0   291    0.861443D-05    0.103725D+00    0.929094D-02    0.418175D+00
   0   292    0.266601D-05    0.731661D-01    0.339826D-02    0.419214D+00
   0   293    0.806172D-06    0.509224D-01    0.248534D-03    0.419929D+00
   0   294    0.251825D-06    0.350272D-01    0.158547D-03    0.420420D+00
   0   295    0.762362D-07    0.238473D-01    0.664390D-04    0.420756D+00
   0   296    0.224441D-07    0.160906D-01    0.222693D-04    0.420984D+00
   0   297    0.669219D-08    0.107720D-01    0.620401D-05    0.421139D+00
   0   298    0.189340D-08    0.716228D-02    0.989832D-06    0.421243D+00
   0   299    0.545988D-09    0.473378D-02    0.360154D-06    0.421312D+00
   0   300    0.165225D-09    0.311242D-02    0.155996D-06    0.421359D+00
   0   301    0.495930D-10    0.203708D-02    0.622100D-07    0.421389D+00
   0   302    0.153035D-10    0.132796D-02    0.600473D-08    0.421409D+00
   0   303    0.465371D-11    0.862677D-03    0.535471D-08    0.421423D+00
   0   304    0.142770D-11    0.558709D-03    0.101230D-08    0.421431D+00
   0   305    0.423274D-12    0.360880D-03    0.123608D-09    0.421437D+00
   0   306    0.122481D-12    0.232553D-03    0.126600D-09    0.421440D+00
   0   307    0.341263D-13    0.149551D-03    0.871814D-11    0.421443D+00
   0   308    0.992582D-14    0.960003D-04    0.120312D-10    0.421444D+00
   0   309    0.276878D-14    0.615272D-04    0.113424D-11    0.421445D+00
   0   310    0.748908D-15    0.393782D-04    0.270328D-12    0.421446D+00
   0   311    0.206779D-15    0.251715D-04    0.250352D-12    0.421446D+00
   0   312    0.558181D-16    0.160728D-04    0.250627D-13    0.421447D+00
   0   313    0.154671D-16    0.102531D-04    0.193020D-13    0.421447D+00
   0   314    0.407367D-17    0.653506D-05    0.311977D-14    0.421447D+00
   0   315    0.108412D-17    0.416213D-05    0.146016D-14    0.421447D+00
   0   316    0.282197D-18    0.264904D-05    0.373383D-15    0.421447D+00
   0   317    0.748290D-19    0.168501D-05    0.957137D-16    0.421447D+00
   0   318    0.197044D-19    0.107123D-05    0.189179D-16    0.421447D+00
   0   319    0.496946D-20    0.680693D-06    0.323888D-17    0.421447D+00
   0   320    0.125941D-20    0.432349D-06    0.483757D-18    0.421447D+00
   0   321    0.316770D-21    0.274503D-06    0.170065D-18    0.421447D+00
   0   322    0.828994D-22    0.174225D-06    0.637751D-19    0.421447D+00
   0   323    0.213111D-22    0.110544D-06    0.114558D-19    0.421447D+00
   0   324    0.541131D-23    0.701185D-07    0.530303D-20    0.421447D+00
   0   325    0.128534D-23    0.444651D-07    0.853195D-21    0.421447D+00
   0   326    0.333244D-24    0.281906D-07    0.215212D-21    0.421447D+00
   0   327    0.828275D-25    0.178689D-07    0.579659D-22    0.421447D+00
   0   328    0.211620D-25    0.113242D-07    0.232589D-22    0.421447D+00
   0   329    0.528256D-26    0.717528D-08    0.734828D-23    0.421447D+00
   0   330    0.129313D-26    0.454572D-08    0.165429D-23    0.421447D+00
   0   331    0.314489D-27    0.287942D-08    0.299263D-24    0.421447D+00
   0   332    0.775939D-28    0.182369D-08    0.593809D-25    0.421447D+00
   0   333    0.186542D-28    0.115490D-08    0.943909D-26    0.421447D+00
   0   334    0.457124D-29    0.731300D-09    0.393930D-26    0.421447D+00
   0   335    0.115466D-29    0.463026D-09    0.139092D-26    0.421447D+00
   0   336    0.280360D-30    0.293142D-09    0.308066D-27    0.421447D+00
   0   337    0.693317D-31    0.185575D-09    0.300120D-28    0.421447D+00
   0   338    0.170646D-31    0.117471D-09    0.246800D-28    0.421447D+00
   0   339    0.413820D-32    0.743566D-10    0.261683D-29    0.421447D+00
   0   340    0.102030D-32    0.470637D-10    0.385754D-30    0.421447D+00
   0   341    0.245481D-33    0.297875D-10    0.270278D-30    0.421447D+00
   0   342    0.590822D-34    0.188523D-10    0.331576D-31    0.421447D+00
   0   343    0.145101D-34    0.119312D-10    0.638800D-32    0.421447D+00
   0   344    0.348489D-35    0.755079D-11    0.258883D-32    0.421447D+00
   0   345    0.823087D-36    0.477850D-11    0.113181D-32    0.421447D+00
   0   346    0.194338D-36    0.302403D-11    0.218754D-33    0.421447D+00
   0   347    0.461923D-37    0.191370D-11    0.327369D-34    0.421447D+00
   0   348    0.110761D-37    0.121105D-11    0.610048D-35    0.421447D+00
   0   349    0.262613D-38    0.766387D-12    0.160283D-35    0.421447D+00
   0   350    0.637145D-39    0.484993D-12    0.825102D-36    0.421447D+00
   0   351    0.157086D-39    0.306920D-12    0.126927D-36    0.421447D+00
   0   352    0.381577D-40    0.194231D-12    0.513552D-37    0.421447D+00
   0   353    0.886489D-41    0.122919D-12    0.124350D-37    0.421447D+00
   0   354    0.221684D-41    0.777900D-13    0.198917D-38    0.421447D+00
   0   355    0.514299D-42    0.492308D-13    0.557250D-39    0.421447D+00
   0   356    0.125967D-42    0.311572D-13    0.412581D-40    0.421447D+00
   0   357    0.301336D-43    0.197192D-13    0.273644D-40    0.421447D+00
   0   358    0.747411D-44    0.124805D-13    0.512874D-41    0.421447D+00
   0   359    0.174410D-44    0.789922D-14    0.179339D-41    0.421447D+00
   0   360    0.398460D-45    0.499975D-14    0.196283D-42    0.421447D+00
   0   361    0.948890D-46    0.316465D-14    0.665998D-43    0.421447D+00
   0   362    0.217942D-46    0.200316D-14    0.211181D-43    0.421447D+00
   0   363    0.534885D-47    0.126800D-14    0.489176D-44    0.421447D+00
   0   364    0.126877D-47    0.802667D-15    0.165653D-44    0.421447D+00
   0   365    0.308362D-48    0.508120D-15    0.312176D-45    0.421447D+00
   0   366    0.742241D-49    0.321671D-15    0.204122D-46    0.421447D+00
   0   367    0.171554D-49    0.203644D-15    0.261062D-46    0.421447D+00
   0   368    0.402396D-50    0.128928D-15    0.360025D-47    0.421447D+00
   0   369    0.948570D-51    0.816272D-16    0.946066D-48    0.421447D+00
   0   370    0.228700D-51    0.516818D-16    0.114436D-48    0.421447D+00
   0   371    0.532566D-52    0.327232D-16    0.739934D-49    0.421447D+00
   0   372    0.125883D-52    0.207199D-16    0.151472D-49    0.421447D+00
   0   373    0.295120D-53    0.131200D-16    0.143412D-50    0.421447D+00
   0   374    0.723284D-54    0.830793D-17    0.384323D-51    0.421447D+00
   0   375    0.175351D-54    0.526097D-17    0.548890D-52    0.421447D+00
   0   376    0.414207D-55    0.333159D-17    0.406860D-52    0.421447D+00
   0   377    0.998356D-56    0.210984D-17    0.944474D-53    0.421447D+00
   0   378    0.238918D-56    0.133617D-17    0.108931D-53    0.421447D+00
   0   379    0.562820D-57    0.846219D-18    0.734364D-54    0.421447D+00
   0   380    0.131251D-57    0.535940D-18    0.969387D-55    0.421447D+00
   0   381    0.312866D-58    0.339438D-18    0.256863D-55    0.421447D+00
   0   382    0.753527D-59    0.214988D-18    0.819989D-56    0.421447D+00
   0   383    0.179167D-59    0.136169D-18    0.200023D-56    0.421447D+00
   0   384    0.421995D-60    0.862482D-19    0.146862D-57    0.421447D+00
   0   385    0.100039D-60    0.546299D-19    0.870137D-58    0.421447D+00
   0   386    0.234768D-61    0.346034D-19    0.106941D-58    0.421447D+00
   0   387    0.552753D-62    0.219186D-19    0.333511D-59    0.421447D+00
   0   388    0.128248D-62    0.138838D-19    0.890431D-60    0.421447D+00
   0   389    0.306041D-63    0.879439D-20    0.405001D-60    0.421447D+00
   0   390    0.721605D-64    0.557046D-20    0.107282D-60    0.421447D+00
   0   391    0.167772D-64    0.352808D-20    0.579978D-62    0.421447D+00
   0   392    0.402075D-65    0.223401D-20    0.375786D-62    0.421447D+00
   0   393    0.943625D-66    0.141375D-20    0.753247D-63    0.421447D+00
   0   394    0.222439D-66    0.893332D-21    0.212667D-63    0.421447D+00
   0   395    0.550464D-67    0.562364D-21    0.386857D-64    0.421447D+00
   0   396    0.128651D-67    0.350656D-21    0.174042D-64    0.421447D+00
   0   397    0.307155D-68    0.213310D-21    0.161619D-65    0.421447D+00