variables =  "IG"  "JG"  "PHI"  "Temp."  "Latent_heat"  "mm"
ZONE  I=  401  J=  101
   0     0    0.100000D+01    0.830812D+00    0.000000D+00    0.297076D+00
   0     1    0.100000D+01    0.830812D+00    0.000000D+00    0.297076D+00
   0     2    0.100000D+01    0.831329D+00    0.000000D+00    0.296692D+00
   0     3    0.100000D+01    0.832360D+00    0.000000D+00    0.295920D+00
   0     4    0.100000D+01    0.833901D+00    0.000000D+00    0.294754D+00
   0     5    0.100000D+01    0.835944D+00    0.000000D+00    0.293183D+00
   0     6    0.100000D+01    0.838480D+00    0.000000D+00    0.291192D+00
   0     7    0.100000D+01    0.841498D+00    0.000000D+00    0.288763D+00
   0     8    0.100000D+01    0.844984D+00    0.000000D+00    0.285875D+00
   0     9    0.100000D+01    0.848923D+00    0.000000D+00    0.282498D+00
   0    10    0.100000D+01    0.853298D+00    0.000000D+00    0.278601D+00
   0    11    0.100000D+01    0.858092D+00    0.000000D+00    0.274146D+00
   0    12    0.100000D+01    0.863283D+00    0.000000D+00    0.269088D+00
   0    13    0.100000D+01    0.868853D+00    0.000000D+00    0.263376D+00
   0    14    0.100000D+01    0.874779D+00    0.000000D+00    0.256951D+00
   0    15    0.100000D+01    0.881041D+00    0.000000D+00    0.249746D+00
   0    16    0.100000D+01    0.887617D+00   -0.266454D-10    0.241687D+00
   0    17    0.100000D+01    0.894486D+00    0.426326D-09    0.232688D+00
   0    18    0.100000D+01    0.901626D+00    0.105249D-08    0.222655D+00
   0    19    0.100000D+01    0.909019D+00    0.135492D-07    0.211484D+00
   0    20    0.100000D+01    0.916647D+00    0.188383D-07    0.199063D+00
   0    21    0.100000D+01    0.924499D+00   -0.644791D-06    0.185267D+00
   0    22    0.100000D+01    0.932569D+00    0.245897D-05    0.169962D+00
   0    23    0.100000D+01    0.940862D+00    0.138566D-04    0.152996D+00
   0    24    0.999999D+00    0.949403D+00   -0.237389D-03    0.134189D+00
   0    25    0.999991D+00    0.958244D+00   -0.404534D-02    0.113316D+00
   0    26    0.999935D+00    0.967484D+00    0.132667D-01    0.900619D-01
   0    27    0.999551D+00    0.977299D+00   -0.190726D+00    0.639466D-01
   0    28    0.997052D+00    0.987953D+00    0.125833D+01    0.343511D-01
   0    29    0.981205D+00    0.999908D+00    0.326918D+01    0.277925D-03
   0    30    0.888533D+00    0.101502D+01    0.255364D+02   -0.432087D-01
   0    31    0.474116D+00    0.103237D+01    0.710125D+02   -0.880493D-01
   0    32    0.111879D+00    0.102812D+01    0.622994D+02   -0.785168D-01
   0    33    0.297888D-01    0.102173D+01   -0.141530D+02   -0.612486D-01
   0    34    0.121350D-01    0.101689D+01    0.477103D+01   -0.483786D-01
   0    35    0.906998D-02    0.101296D+01    0.471230D+01   -0.368124D-01
   0    36    0.920976D-02    0.101082D+01   -0.164272D+01   -0.314238D-01
   0    37    0.101141D-01    0.100904D+01   -0.554010D+00   -0.256722D-01
   0    38    0.106046D-01    0.100738D+01   -0.478398D+01   -0.212436D-01
   0    39    0.106419D-01    0.100573D+01   -0.158872D+01   -0.162114D-01
   0    40    0.110190D-01    0.100533D+01   -0.171559D+01   -0.154138D-01
   0    41    0.111521D-01    0.100475D+01    0.584968D+00   -0.134048D-01
   0    42    0.111219D-01    0.100419D+01    0.414980D+01   -0.124750D-01
   0    43    0.113954D-01    0.100368D+01   -0.618100D+01   -0.110165D-01
   0    44    0.117736D-01    0.100291D+01    0.231344D+01   -0.863438D-02
   0    45    0.119411D-01    0.100303D+01   -0.168012D+01   -0.876632D-02
   0    46    0.119794D-01    0.100256D+01   -0.184368D+01   -0.683687D-02
   0    47    0.120810D-01    0.100302D+01   -0.554017D+01   -0.884005D-02
   0    48    0.118077D-01    0.100317D+01   -0.268232D+01   -0.850634D-02
   0    49    0.120058D-01    0.100277D+01    0.450714D+01   -0.740667D-02
   0    50    0.127720D-01    0.100215D+01   -0.946235D+00   -0.583706D-02
   0    51    0.126681D-01    0.100256D+01    0.313711D+00   -0.716634D-02
   0    52    0.126629D-01    0.100187D+01    0.737954D+01   -0.504577D-02
   0    53    0.128486D-01    0.100171D+01   -0.203551D+01   -0.466476D-02
   0    54    0.132437D-01    0.100087D+01   -0.784960D+01   -0.250137D-02
   0    55    0.136742D-01    0.100119D+01   -0.181074D+01   -0.378550D-02
   0    56    0.136752D-01    0.999638D+00    0.127770D+01    0.644600D-03
   0    57    0.135951D-01    0.999496D+00    0.737814D+01    0.145132D-02
   0    58    0.135876D-01    0.998281D+00    0.425570D+01    0.439705D-02
   0    59    0.138163D-01    0.997990D+00   -0.610535D+01    0.504462D-02
   0    60    0.137409D-01    0.998187D+00    0.118929D+01    0.506516D-02
   0    61    0.143769D-01    0.998958D+00   -0.171073D+01    0.340463D-02
   0    62    0.140093D-01    0.999954D+00    0.548318D+01   -0.344771D-03
   0    63    0.138371D-01    0.998104D+00    0.188359D+00    0.503620D-02
   0    64    0.138254D-01    0.998608D+00   -0.108763D+01    0.456372D-02
   0    65    0.143536D-01    0.998809D+00    0.646442D+01    0.357182D-02
   0    66    0.143768D-01    0.999165D+00   -0.121644D+01    0.260853D-02
   0    67    0.140145D-01    0.999758D+00    0.221016D+01    0.137609D-02
   0    68    0.141051D-01    0.999619D+00   -0.265517D+01    0.589977D-03
   0    69    0.144079D-01    0.999263D+00    0.474297D+01    0.171502D-02
   0    70    0.142330D-01    0.998581D+00    0.123115D+01    0.363790D-02
   0    71    0.142060D-01    0.999282D+00   -0.602853D-01    0.208089D-02
   0    72    0.141509D-01    0.998857D+00    0.739156D+01    0.271305D-02
   0    73    0.141230D-01    0.999261D+00   -0.602074D+00    0.174359D-02
   0    74    0.142130D-01    0.997627D+00    0.548056D+01    0.659976D-02
   0    75    0.144685D-01    0.996667D+00    0.628997D+01    0.954438D-02
   0    76    0.144272D-01    0.997892D+00   -0.684071D+01    0.638542D-02
   0    77    0.137380D-01    0.998317D+00    0.769987D+01    0.497319D-02
   0    78    0.136202D-01    0.998367D+00   -0.871906D+00    0.444577D-02
   0    79    0.139242D-01    0.998962D+00   -0.783756D+01    0.336578D-02
   0    80    0.138182D-01    0.100053D+01    0.582881D+01   -0.129164D-02
   0    81    0.138737D-01    0.998830D+00    0.446311D+01    0.395920D-02
   0    82    0.141039D-01    0.998597D+00   -0.413970D+01    0.408631D-02
   0    83    0.138729D-01    0.998146D+00    0.321694D+00    0.524035D-02
   0    84    0.138620D-01    0.998817D+00   -0.230608D+00    0.387047D-02
   0    85    0.143331D-01    0.998971D+00   -0.135073D+01    0.234952D-02
   0    86    0.136937D-01    0.998696D+00    0.891966D+00    0.303249D-02
   0    87    0.141213D-01    0.999376D+00    0.440463D+00    0.183982D-02
   0    88    0.137872D-01    0.998655D+00   -0.237534D+01    0.359415D-02
   0    89    0.144328D-01    0.998359D+00    0.526485D+01    0.520383D-02
   0    90    0.139806D-01    0.999707D+00    0.340549D+01    0.132989D-02
   0    91    0.138203D-01    0.998444D+00   -0.799182D+01    0.493300D-02
   0    92    0.139198D-01    0.999845D+00   -0.633941D+01    0.643922D-03
   0    93    0.139545D-01    0.998677D+00   -0.621669D+01    0.428460D-02
   0    94    0.143362D-01    0.998363D+00    0.386027D+01    0.426379D-02
   0    95    0.143397D-01    0.998643D+00   -0.816082D+01    0.349137D-02
   0    96    0.138335D-01    0.998371D+00    0.795674D+01    0.428631D-02
   0    97    0.142037D-01    0.998051D+00   -0.902109D+00    0.507489D-02
   0    98    0.140097D-01    0.998428D+00    0.549281D+01    0.475956D-02
   0    99    0.144313D-01    0.998763D+00    0.108475D+01    0.429950D-02
   0   100    0.145262D-01    0.998281D+00    0.844623D+01    0.532974D-02
   0   101    0.142965D-01    0.998457D+00    0.174565D+00    0.459007D-02
   0   102    0.143981D-01    0.997817D+00   -0.688548D+01    0.618117D-02
   0   103    0.146743D-01    0.997451D+00   -0.609573D+01    0.682123D-02
   0   104    0.144878D-01    0.996996D+00   -0.776255D+01    0.782868D-02
   0   105    0.146967D-01    0.997567D+00   -0.680378D+01    0.714400D-02
   0   106    0.143964D-01    0.998376D+00   -0.199087D+01    0.484607D-02
   0   107    0.145577D-01    0.997962D+00   -0.313128D+01    0.524459D-02
   0   108    0.148697D-01    0.998054D+00    0.108182D+01    0.555515D-02
   0   109    0.148707D-01    0.997425D+00    0.668144D+01    0.797799D-02
   0   110    0.149277D-01    0.997552D+00    0.188856D+01    0.751163D-02
   0   111    0.149784D-01    0.997318D+00    0.756126D+01    0.812490D-02
   0   112    0.158424D-01    0.996537D+00    0.502016D+01    0.997776D-02
   0   113    0.153303D-01    0.997661D+00   -0.790097D+01    0.715670D-02
   0   114    0.153183D-01    0.996664D+00    0.153063D+01    0.921695D-02
   0   115    0.156664D-01    0.996456D+00   -0.617918D+01    0.103828D-01
   0   116    0.156412D-01    0.995394D+00   -0.344099D+01    0.138181D-01
   0   117    0.168709D-01    0.994209D+00   -0.358576D+01    0.171616D-01
   0   118    0.169796D-01    0.992110D+00   -0.132017D+01    0.218358D-01
   0   119    0.174250D-01    0.991422D+00    0.347099D+01    0.246603D-01
   0   120    0.189649D-01    0.986022D+00   -0.427753D+01    0.396198D-01
   0   121    0.208166D-01    0.978713D+00    0.488844D+01    0.599851D-01
   0   122    0.235148D-01    0.968147D+00    0.447533D+01    0.888078D-01
   0   123    0.270468D-01    0.948319D+00    0.408896D+01    0.137431D+00
   0   124    0.289666D-01    0.919883D+00   -0.113238D+02    0.193276D+00
   0   125    0.265723D-01    0.875942D+00    0.162785D+02    0.256203D+00
   0   126    0.208888D-01    0.809304D+00    0.783363D+01    0.311732D+00
   0   127    0.125752D-01    0.719924D+00   -0.546923D+00    0.351942D+00
   0   128    0.623617D-02    0.614056D+00    0.197065D+01    0.377470D+00
   0   129    0.270040D-02    0.504242D+00    0.248190D+01    0.393043D+00
   0   130    0.107951D-02    0.400492D+00    0.548400D+00    0.402688D+00
   0   131    0.400720D-03    0.309111D+00    0.302614D+00    0.408845D+00
   0   132    0.140807D-03    0.232707D+00    0.656595D-01    0.412889D+00
   0   133    0.486725D-04    0.171437D+00    0.132861D-01    0.415602D+00
   0   134    0.161914D-04    0.123930D+00    0.169650D-01    0.417448D+00
   0   135    0.516995D-05    0.881126D-01    0.264170D-02    0.418714D+00
   0   136    0.161444D-05    0.617413D-01    0.105527D-02    0.419585D+00
   0   137    0.498552D-06    0.427149D-01    0.230514D-03    0.420184D+00
   0   138    0.148326D-06    0.292245D-01    0.741376D-04    0.420595D+00
   0   139    0.440782D-07    0.198013D-01    0.124938D-04    0.420875D+00
   0   140    0.128539D-07    0.133034D-01    0.106190D-04    0.421065D+00
   0   141    0.374806D-08    0.887214D-02    0.375806D-05    0.421194D+00
   0   142    0.108767D-08    0.587900D-02    0.112272D-05    0.421280D+00
   0   143    0.313900D-09    0.387390D-02    0.301069D-06    0.421337D+00
   0   144    0.964479D-10    0.254025D-02    0.898114D-07    0.421375D+00
   0   145    0.302088D-10    0.165866D-02    0.218515D-07    0.421400D+00
   0   146    0.941013D-11    0.107901D-02    0.118134D-07    0.421416D+00
   0   147    0.279592D-11    0.699657D-03    0.247427D-08    0.421427D+00
   0   148    0.815300D-12    0.452389D-03    0.448348D-09    0.421434D+00
   0   149    0.233324D-12    0.291782D-03    0.755685D-10    0.421439D+00
   0   150    0.682935D-13    0.187783D-03    0.623699D-10    0.421442D+00
   0   151    0.192752D-13    0.120620D-03    0.212912D-10    0.421444D+00
   0   152    0.538882D-14    0.773480D-04    0.421890D-11    0.421445D+00
   0   153    0.146346D-14    0.495256D-04    0.103077D-11    0.421446D+00
   0   154    0.397022D-15    0.316692D-04    0.300322D-12    0.421446D+00
   0   155    0.109409D-15    0.202272D-04    0.140580D-12    0.421446D+00
   0   156    0.300559D-16    0.129058D-04    0.285892D-13    0.421447D+00
   0   157    0.795949D-17    0.822682D-05    0.110951D-13    0.421447D+00
   0   158    0.215267D-17    0.523989D-05    0.215287D-14    0.421447D+00
   0   159    0.569128D-18    0.333498D-05    0.183177D-15    0.421447D+00
   0   160    0.147651D-18    0.212119D-05    0.113495D-15    0.421447D+00
   0   161    0.384635D-19    0.134838D-05    0.203076D-16    0.421447D+00
   0   162    0.103645D-19    0.856671D-06    0.521560D-17    0.421447D+00
   0   163    0.264525D-20    0.544015D-06    0.228006D-17    0.421447D+00
   0   164    0.671180D-21    0.345322D-06    0.566664D-18    0.421447D+00
   0   165    0.172212D-21    0.219114D-06    0.446465D-19    0.421447D+00
   0   166    0.429134D-22    0.138985D-06    0.400888D-19    0.421447D+00
   0   167    0.107214D-22    0.881310D-07    0.144884D-19    0.421447D+00
   0   168    0.268305D-23    0.558686D-07    0.323898D-20    0.421447D+00
   0   169    0.662457D-24    0.354076D-07    0.899256D-21    0.421447D+00
   0   170    0.163863D-24    0.224350D-07    0.135436D-21    0.421447D+00
   0   171    0.409211D-25    0.142123D-07    0.230153D-22    0.421447D+00
   0   172    0.107076D-25    0.900163D-08    0.570098D-23    0.421447D+00
   0   173    0.254935D-26    0.570038D-08    0.227095D-23    0.421447D+00
   0   174    0.632364D-27    0.360926D-08    0.876844D-24    0.421447D+00
   0   175    0.160369D-27    0.228493D-08    0.207387D-24    0.421447D+00
   0   176    0.398684D-28    0.144634D-08    0.134799D-25    0.421447D+00
   0   177    0.987236D-29    0.915413D-09    0.993531D-26    0.421447D+00
   0   178    0.238472D-29    0.579319D-09    0.340728D-26    0.421447D+00
   0   179    0.582291D-30    0.366587D-09    0.547361D-27    0.421447D+00
   0   180    0.140868D-30    0.231951D-09    0.190203D-27    0.421447D+00
   0   181    0.342976D-31    0.146751D-09    0.196182D-28    0.421447D+00
   0   182    0.845822D-32    0.928399D-10    0.586788D-29    0.421447D+00
   0   183    0.202208D-32    0.587297D-10    0.121233D-29    0.421447D+00
   0   184    0.487496D-33    0.371495D-10    0.380044D-30    0.421447D+00
   0   185    0.118733D-33    0.234976D-10    0.550942D-31    0.421447D+00
   0   186    0.288892D-34    0.148618D-10    0.267614D-31    0.421447D+00
   0   187    0.680724D-35    0.939931D-11    0.103360D-31    0.421447D+00
   0   188    0.165734D-35    0.594431D-11    0.221913D-32    0.421447D+00
   0   189    0.399849D-36    0.375913D-11    0.473104D-33    0.421447D+00
   0   190    0.979233D-37    0.237714D-11    0.955675D-34    0.421447D+00
   0   191    0.239830D-37    0.150316D-11    0.273216D-34    0.421447D+00
   0   192    0.578513D-38    0.950472D-12    0.690225D-35    0.421447D+00
   0   193    0.137509D-38    0.600976D-12    0.543141D-36    0.421447D+00
   0   194    0.331244D-39    0.379979D-12    0.343547D-36    0.421447D+00
   0   195    0.785644D-40    0.240241D-12    0.111998D-36    0.421447D+00
   0   196    0.187564D-40    0.151886D-12    0.150371D-37    0.421447D+00
   0   197    0.447229D-41    0.960230D-13    0.197621D-38    0.421447D+00
   0   198    0.106392D-41    0.607038D-13    0.124631D-38    0.421447D+00
   0   199    0.256822D-42    0.383743D-13    0.197262D-39    0.421447D+00
   0   200    0.626595D-43    0.242576D-13    0.578307D-40    0.421447D+00
   0   201    0.147933D-43    0.153334D-13    0.474060D-41    0.421447D+00
   0   202    0.352068D-44    0.969190D-14    0.431511D-41    0.421447D+00
   0   203    0.832957D-45    0.612575D-14    0.611983D-42    0.421447D+00
   0   204    0.198099D-45    0.387158D-14    0.664836D-43    0.421447D+00
   0   205    0.478259D-46    0.244677D-14    0.552789D-43    0.421447D+00
   0   206    0.113477D-46    0.154622D-14    0.544245D-44    0.421447D+00
   0   207    0.275604D-47    0.977057D-15    0.336209D-44    0.421447D+00
   0   208    0.652472D-48    0.617358D-15    0.384189D-45    0.421447D+00
   0   209    0.157397D-48    0.390049D-15    0.119006D-45    0.421447D+00
   0   210    0.369800D-49    0.246412D-15    0.328881D-46    0.421447D+00
   0   211    0.908342D-50    0.155654D-15    0.753981D-47    0.421447D+00
   0   212    0.208903D-50    0.983136D-16    0.257235D-47    0.421447D+00
   0   213    0.483669D-51    0.620887D-16    0.590493D-48    0.421447D+00
   0   214    0.113348D-51    0.392060D-16    0.168253D-48    0.421447D+00
   0   215    0.266413D-52    0.247530D-16    0.256068D-49    0.421447D+00
   0   216    0.632997D-53    0.156255D-16    0.561628D-50    0.421447D+00
   0   217    0.151275D-53    0.986191D-17    0.111286D-50    0.421447D+00
   0   218    0.363589D-54    0.622305D-17    0.957187D-52    0.421447D+00
   0   219    0.853718D-55    0.392601D-17    0.728889D-52    0.421447D+00
   0   220    0.198914D-55    0.247628D-17    0.237113D-52    0.421447D+00
   0   221    0.474443D-56    0.156148D-17    0.662533D-53    0.421447D+00
   0   222    0.111123D-56    0.984359D-18    0.143399D-53    0.421447D+00
   0   223    0.263587D-57    0.620357D-18    0.344358D-54    0.421447D+00
   0   224    0.618735D-58    0.390833D-18    0.917654D-55    0.421447D+00
   0   225    0.147601D-58    0.246145D-18    0.606874D-56    0.421447D+00
   0   226    0.352864D-59    0.154964D-18    0.180633D-56    0.421447D+00
   0   227    0.847962D-60    0.975207D-19    0.667472D-57    0.421447D+00
   0   228    0.199887D-60    0.613453D-19    0.239650D-57    0.421447D+00
   0   229    0.466947D-61    0.385720D-19    0.211337D-58    0.421447D+00
   0   230    0.111061D-61    0.242413D-19    0.661637D-59    0.421447D+00
   0   231    0.267802D-62    0.152272D-19    0.975551D-60    0.421447D+00
   0   232    0.613582D-63    0.955995D-20    0.374025D-60    0.421447D+00
   0   233    0.142526D-63    0.599857D-20    0.173574D-60    0.421447D+00
   0   234    0.342374D-64    0.376171D-20    0.304705D-61    0.421447D+00
   0   235    0.806995D-65    0.235751D-20    0.686096D-62    0.421447D+00
   0   236    0.185170D-65    0.147653D-20    0.986625D-63    0.421447D+00
   0   237    0.444650D-66    0.924145D-21    0.434938D-63    0.421447D+00
   0   238    0.104501D-66    0.578005D-21    0.547604D-64    0.421447D+00
   0   239    0.246171D-67    0.361249D-21    0.326213D-64    0.421447D+00
   0   240    0.589293D-68    0.225607D-21    0.290184D-65    0.421447D+00
   0   241    0.138163D-68    0.140785D-21    0.179204D-65    0.421447D+00
   0   242    0.325366D-69    0.877822D-22    0.325176D-66    0.421447D+00
   0   243    0.765889D-70    0.546880D-22    0.730598D-67    0.421447D+00
   0   244    0.185291D-70    0.340409D-22    0.119159D-67    0.421447D+00
   0   245    0.436333D-71    0.211700D-22    0.504858D-68    0.421447D+00
   0   246    0.100561D-71    0.131536D-22    0.144299D-68    0.421447D+00
   0   247    0.242279D-72    0.816497D-23    0.561054D-70    0.421447D+00
   0   248    0.568894D-73    0.506344D-23    0.234857D-70    0.421447D+00
   0   249    0.134579D-73    0.313693D-23    0.898748D-71    0.421447D+00
   0   250    0.316682D-74    0.194144D-23    0.110999D-71    0.421447D+00
   0   251    0.734745D-75    0.120031D-23    0.939842D-72    0.421447D+00
   0   252    0.177302D-75    0.741308D-24    0.812476D-73    0.421447D+00
   0   253    0.422647D-76    0.457337D-24    0.247970D-73    0.421447D+00
   0   254    0.984270D-77    0.281835D-24    0.148829D-73    0.421447D+00
   0   255    0.233076D-77    0.173486D-24    0.130065D-74    0.421447D+00
   0   256    0.555951D-78    0.106669D-24    0.229613D-75    0.421447D+00
   0   257    0.127751D-78    0.655104D-25    0.163534D-75    0.421447D+00
   0   258    0.301663D-79    0.401855D-25    0.298785D-76    0.421447D+00
   0   259    0.690012D-80    0.246211D-25    0.702220D-77    0.421447D+00
   0   260    0.165358D-80    0.150668D-25    0.204022D-77    0.421447D+00
   0   261    0.402180D-81    0.920870D-26    0.399041D-78    0.421447D+00
   0   262    0.962158D-82    0.562129D-26    0.449569D-79    0.421447D+00
   0   263    0.227917D-82    0.342709D-26    0.131942D-79    0.421447D+00
   0   264    0.542844D-83    0.208671D-26    0.435903D-80    0.421447D+00
   0   265    0.127231D-83    0.126894D-26    0.914892D-81    0.421447D+00
   0   266    0.291503D-84    0.770641D-27    0.241335D-81    0.421447D+00
   0   267    0.682092D-85    0.467405D-27    0.989648D-82    0.421447D+00
   0   268    0.159377D-85    0.283112D-27    0.228093D-82    0.421447D+00
   0   269    0.372472D-86    0.171255D-27    0.287673D-83    0.421447D+00
   0   270    0.878123D-87    0.103452D-27    0.944085D-84    0.421447D+00
   0   271    0.207240D-87    0.624090D-28    0.150237D-84    0.421447D+00
   0   272    0.473924D-88    0.375975D-28    0.593802D-85    0.421447D+00
   0   273    0.113321D-88    0.226189D-28    0.343358D-86    0.421447D+00
   0   274    0.263207D-89    0.135888D-28    0.312978D-86    0.421447D+00
   0   275    0.600023D-90    0.815234D-29    0.630622D-87    0.421447D+00
   0   276    0.141944D-90    0.488397D-29    0.149123D-87    0.421447D+00
   0   277    0.325639D-91    0.292179D-29    0.159604D-88    0.421447D+00
   0   278    0.774970D-92    0.174544D-29    0.636903D-89    0.421447D+00
   0   279    0.185605D-92    0.104122D-29    0.150349D-89    0.421447D+00
   0   280    0.424293D-93    0.620233D-30    0.576732D-90    0.421447D+00
   0   281    0.101952D-93    0.368926D-30    0.748347D-91    0.421447D+00
   0   282    0.237892D-94    0.219126D-30    0.977285D-92    0.421447D+00
   0   283    0.550778D-95    0.129962D-30    0.490079D-92    0.421447D+00
   0   284    0.133456D-95    0.769666D-31    0.187693D-92    0.421447D+00
   0   285    0.314486D-96    0.455146D-31    0.159278D-93    0.421447D+00
   0   286    0.721387D-97    0.268757D-31    0.523901D-94    0.421447D+00
   0   287    0.168723D-97    0.158462D-31    0.183670D-94    0.421447D+00
   0   288    0.400836D-98    0.932927D-32    0.535517D-95    0.421447D+00
   0   289    0.924843D-99    0.548432D-32    0.769769D-96    0.421447D+00
   0   290    0.225193D-99    0.321922D-32    0.276101D-96    0.421447D+00
   0   291    0.518644-100    0.188681D-32    0.443178D-97    0.421447D+00
   0   292    0.120706-100    0.110421D-32    0.124829D-97    0.421447D+00
   0   293    0.287572-101    0.645247D-33    0.984290D-99    0.421447D+00
   0   294    0.673587-102    0.376481D-33    0.283166D-99    0.421447D+00
   0   295    0.159097-102    0.219333D-33    0.111755D-99    0.421447D+00
   0   296    0.368301-103    0.127587D-33    0.269448-100    0.421447D+00
   0   297    0.885586-104    0.741059D-34    0.946557-101    0.421447D+00
   0   298    0.204093-104    0.429771D-34    0.158202-101    0.421447D+00
   0   299    0.477680-105    0.248863D-34    0.267899-102    0.421447D+00
   0   300    0.111990-105    0.143887D-34    0.109708-102    0.421447D+00
   0   301    0.259208-106    0.830649D-35    0.322470-103    0.421447D+00
   0   302    0.614359-107    0.478796D-35    0.402645-104    0.421447D+00
   0   303    0.143644-107    0.275561D-35    0.180997-104    0.421447D+00
   0   304    0.340530-108    0.158350D-35    0.898376-106    0.421447D+00
   0   305    0.810610-109    0.908558D-36    0.115177-105    0.421447D+00
   0   306    0.192236-109    0.520498D-36    0.253214-106    0.421447D+00
   0   307    0.462497-110    0.297726D-36    0.320033-107    0.421447D+00
   0   308    0.107931-110    0.170038D-36    0.100548-107    0.421447D+00
   0   309    0.258070-111    0.969624D-37    0.105936-108    0.421447D+00
   0   310    0.580202-112    0.552066D-37    0.449965-109    0.421447D+00
   0   311    0.138537-112    0.313840D-37    0.145314-109    0.421447D+00
   0   312    0.332838-113    0.178137D-37    0.244268-110    0.421447D+00
   0   313    0.768680-114    0.100955D-37    0.885002-111    0.421447D+00
   0   314    0.180019-114    0.571254D-38    0.100182-111    0.421447D+00
   0   315    0.425706-115    0.322744D-38    0.538347-112    0.421447D+00
   0   316    0.961937-116    0.182059D-38    0.389740-113    0.421447D+00
   0   317    0.227439-116    0.102540D-38    0.223144-113    0.421447D+00
   0   318    0.525085-117    0.576638D-39    0.286565-114    0.421447D+00
   0   319    0.120645-117    0.323771D-39    0.529697-115    0.421447D+00
   0   320    0.279074-118    0.181509D-39    0.429354-115    0.421447D+00
   0   321    0.648629-119    0.101597D-39    0.309112-116    0.421447D+00
   0   322    0.156030-119    0.567797D-40    0.206658-116    0.421447D+00
   0   323    0.373583-120    0.316832D-40    0.104118-117    0.421447D+00
   0   324    0.876200-121    0.176518D-40    0.842536-118    0.421447D+00
   0   325    0.203156-121    0.981916D-41    0.295582-118    0.421447D+00
   0   326    0.476740-122    0.545362D-41    0.278723-119    0.421447D+00
   0   327    0.111007-122    0.302426D-41    0.728693-120    0.421447D+00
   0   328    0.264645-123    0.167447D-41    0.139129-120    0.421447D+00
   0   329    0.627292-124    0.925683D-42    0.256309-121    0.421447D+00
   0   330    0.146214-124    0.510941D-42    0.195724-121    0.421447D+00
   0   331    0.342747-125    0.281581D-42    0.490089-122    0.421447D+00
   0   332    0.803745-126    0.154939D-42    0.910650-123    0.421447D+00
   0   333    0.189550-126    0.851221D-43    0.214891-123    0.421447D+00
   0   334    0.456873-127    0.466927D-43    0.134723-124    0.421447D+00
   0   335    0.107294-127    0.255729D-43    0.799126-125    0.421447D+00
   0   336    0.255015-128    0.139841D-43    0.824941-126    0.421447D+00
   0   337    0.606738-129    0.763512D-44    0.820435-126    0.421447D+00
   0   338    0.142494-129    0.416218D-44    0.208109-126    0.421447D+00
   0   339    0.327320-130    0.226543D-44    0.152815-127    0.421447D+00
   0   340    0.782404-131    0.123114D-44    0.590522-128    0.421447D+00
   0   341    0.181610-131    0.668017D-45    0.182598-128    0.421447D+00
   0   342    0.429420-132    0.361904D-45    0.182427-129    0.421447D+00
   0   343    0.101899-132    0.195761D-45    0.951631-130    0.421447D+00
   0   344    0.241666-133    0.105726D-45    0.219107-130    0.421447D+00
   0   345    0.583896-134    0.570120D-46    0.362806-131    0.421447D+00
   0   346    0.135774-134    0.306956D-46    0.193726-131    0.421447D+00
   0   347    0.317892-135    0.165010D-46    0.335948-132    0.421447D+00
   0   348    0.725000-136    0.885673D-47    0.347210-133    0.421447D+00
   0   349    0.172590-136    0.474638D-47    0.671947-134    0.421447D+00
   0   350    0.414236-137    0.253968D-47    0.443577-134    0.421447D+00
   0   351    0.946004-138    0.135682D-47    0.693546-135    0.421447D+00
   0   352    0.224595-138    0.723757D-48    0.144136-135    0.421447D+00
   0   353    0.529917-139    0.385471D-48    0.467348-136    0.421447D+00
   0   354    0.123730-139    0.204983D-48    0.642090-137    0.421447D+00
   0   355    0.280857-140    0.108836D-48    0.134210-137    0.421447D+00
   0   356    0.666180-141    0.576973D-49    0.806351-138    0.421447D+00
   0   357    0.163255-141    0.305399D-49    0.138576-138    0.421447D+00
   0   358    0.373214-142    0.161402D-49    0.234155-139    0.421447D+00
   0   359    0.873921-143    0.851686D-50    0.833994-140    0.421447D+00
   0   360    0.210208-143    0.448725D-50    0.134765-140    0.421447D+00
   0   361    0.461443-144    0.236054D-50    0.726186-141    0.421447D+00
   0   362    0.111418-144    0.123986D-50    0.959660-142    0.421447D+00
   0   363    0.257329-145    0.650223D-51    0.233177-142    0.421447D+00
   0   364    0.597947-146    0.340475D-51    0.528439-143    0.421447D+00
   0   365    0.140321-146    0.178008D-51    0.148759-143    0.421447D+00
   0   366    0.334519-147    0.929232D-52    0.111783-144    0.421447D+00
   0   367    0.802069-148    0.484330D-52    0.197785-145    0.421447D+00
   0   368    0.192810-148    0.252053D-52    0.129015-145    0.421447D+00
   0   369    0.429369-149    0.130971D-52    0.557727-146    0.421447D+00
   0   370    0.999097-150    0.679500D-53    0.132540-146    0.421447D+00
   0   371    0.221003-150    0.351997D-53    0.311591-147    0.421447D+00
   0   372    0.505987-151    0.182063D-53    0.213303-148    0.421447D+00
   0   373    0.117056-151    0.940239D-54    0.140689-148    0.421447D+00
   0   374    0.275202-152    0.484830D-54    0.116673-149    0.421447D+00
   0   375    0.639426-153    0.249618D-54    0.349236-150    0.421447D+00
   0   376    0.145365-153    0.128321D-54    0.172367-150    0.421447D+00
   0   377    0.332558-154    0.658651D-55    0.469288-151    0.421447D+00
   0   378    0.753573-155    0.337558D-55    0.893517-152    0.421447D+00
   0   379    0.171719-155    0.172734D-55    0.136894-152    0.421447D+00
   0   380    0.399512-156    0.882563D-56    0.526303-153    0.421447D+00
   0   381    0.914470-157    0.450246D-56    0.835296-154    0.421447D+00
   0   382    0.208409-157    0.229346D-56    0.120340-154    0.421447D+00
   0   383    0.484952-158    0.116646D-56    0.586692-155    0.421447D+00
   0   384    0.109920-158    0.592365D-57    0.127164-155    0.421447D+00
   0   385    0.251879-159    0.300363D-57    0.229226-156    0.421447D+00
   0   386    0.579519-160    0.152070D-57    0.615217-157    0.421447D+00
   0   387    0.130608-160    0.768740D-58    0.666692-158    0.421447D+00
   0   388    0.295876-161    0.388021D-58    0.434593-158    0.421447D+00
   0   389    0.679941-162    0.195557D-58    0.405132-159    0.421447D+00
   0   390    0.154084-162    0.984079D-59    0.810578-160    0.421447D+00
   0   391    0.345198-163    0.494456D-59    0.260485-160    0.421447D+00
   0   392    0.758304-164    0.248065D-59    0.499594-161    0.421447D+00
   0   393    0.166203-164    0.124260D-59    0.222987-161    0.421447D+00
   0   394    0.385715-165    0.621420D-60    0.342277-162    0.421447D+00
   0   395    0.870900-166    0.310144D-60    0.745175-163    0.421447D+00
   0   396    0.189421-166    0.154236D-60    0.199182-163    0.421447D+00
   0   397    0.423999-167    0.759380D-61    0.484615-164    0.421447D+00