variables =  "IG"  "JG"  "PHI"  "Temp."  "Latent_heat"  "mm"
ZONE  I=  401  J=  101
   0     0    0.100000D+01    0.845907D+00    0.000000D+00    0.285094D+00
   0     1    0.100000D+01    0.845907D+00    0.000000D+00    0.285094D+00
   0     2    0.100000D+01    0.846352D+00    0.000000D+00    0.284716D+00
   0     3    0.100000D+01    0.847240D+00    0.000000D+00    0.283956D+00
   0     4    0.100000D+01    0.848567D+00    0.000000D+00    0.282809D+00
   0     5    0.100000D+01    0.850328D+00    0.000000D+00    0.281264D+00
   0     6    0.100000D+01    0.852517D+00    0.000000D+00    0.279309D+00
   0     7    0.100000D+01    0.855126D+00    0.000000D+00    0.276927D+00
   0     8    0.100000D+01    0.858143D+00    0.000000D+00    0.274097D+00
   0     9    0.100000D+01    0.861559D+00    0.000000D+00    0.270796D+00
   0    10    0.100000D+01    0.865360D+00    0.000000D+00    0.266993D+00
   0    11    0.100000D+01    0.869533D+00    0.000000D+00    0.262657D+00
   0    12    0.100000D+01    0.874064D+00    0.000000D+00    0.257747D+00
   0    13    0.100000D+01    0.878935D+00    0.000000D+00    0.252220D+00
   0    14    0.100000D+01    0.884131D+00    0.000000D+00    0.246025D+00
   0    15    0.100000D+01    0.889634D+00    0.000000D+00    0.239108D+00
   0    16    0.100000D+01    0.895426D+00    0.133227D-10    0.231407D+00
   0    17    0.100000D+01    0.901489D+00   -0.666134D-10    0.222854D+00
   0    18    0.100000D+01    0.907804D+00    0.586198D-09    0.213377D+00
   0    19    0.100000D+01    0.914352D+00    0.275779D-08    0.202899D+00
   0    20    0.100000D+01    0.921117D+00   -0.240208D-07    0.191340D+00
   0    21    0.100000D+01    0.928081D+00    0.545830D-07    0.178619D+00
   0    22    0.100000D+01    0.935233D+00   -0.320250D-06    0.164651D+00
   0    23    0.100000D+01    0.942566D+00    0.509884D-05    0.149353D+00
   0    24    0.100000D+01    0.950082D+00   -0.420180D-04    0.132637D+00
   0    25    0.999998D+00    0.957796D+00   -0.271112D-03    0.114407D+00
   0    26    0.999989D+00    0.965744D+00   -0.142746D-02    0.945452D-01
   0    27    0.999924D+00    0.973992D+00   -0.453197D-01    0.728888D-01
   0    28    0.999474D+00    0.982661D+00   -0.440027D-01    0.491787D-01
   0    29    0.996637D+00    0.992112D+00    0.177064D+01    0.225865D-01
   0    30    0.978694D+00    0.100303D+01   -0.665835D+01   -0.904703D-02
   0    31    0.874210D+00    0.101424D+01    0.744461D+02   -0.390679D-01
   0    32    0.435827D+00    0.102279D+01    0.139659D+03   -0.640579D-01
   0    33    0.102327D+00    0.102624D+01    0.349129D+02   -0.725785D-01
   0    34    0.272809D-01    0.102192D+01   -0.991975D+01   -0.612449D-01
   0    35    0.115033D-01    0.101660D+01   -0.321151D+01   -0.474180D-01
   0    36    0.869349D-02    0.101358D+01    0.131548D+01   -0.391198D-01
   0    37    0.882800D-02    0.101095D+01    0.116997D+01   -0.313976D-01
   0    38    0.920532D-02    0.100957D+01    0.376344D+00   -0.269139D-01
   0    39    0.976041D-02    0.100710D+01    0.435722D+01   -0.199324D-01
   0    40    0.102203D-01    0.100644D+01   -0.404099D+01   -0.182711D-01
   0    41    0.105921D-01    0.100566D+01    0.488332D+01   -0.159874D-01
   0    42    0.105348D-01    0.100483D+01   -0.433402D+01   -0.143529D-01
   0    43    0.108021D-01    0.100462D+01    0.418200D+01   -0.137162D-01
   0    44    0.111277D-01    0.100447D+01   -0.580829D+01   -0.126324D-01
   0    45    0.111751D-01    0.100381D+01   -0.271702D+01   -0.112490D-01
   0    46    0.115056D-01    0.100469D+01   -0.107671D+01   -0.139356D-01
   0    47    0.116105D-01    0.100450D+01    0.392306D+01   -0.128888D-01
   0    48    0.121359D-01    0.100452D+01   -0.905262D+00   -0.128817D-01
   0    49    0.120844D-01    0.100348D+01   -0.648056D+01   -0.103968D-01
   0    50    0.123388D-01    0.100258D+01   -0.360627D+01   -0.793353D-02
   0    51    0.123006D-01    0.100191D+01   -0.528800D+01   -0.531119D-02
   0    52    0.124267D-01    0.100156D+01    0.223592D+01   -0.418280D-02
   0    53    0.130011D-01    0.100077D+01    0.365754D+01   -0.270458D-02
   0    54    0.130866D-01    0.999512D+00   -0.481988D+01    0.138872D-02
   0    55    0.133266D-01    0.999371D+00   -0.115314D+01    0.183554D-02
   0    56    0.132975D-01    0.100039D+01    0.574560D+01   -0.139142D-02
   0    57    0.135146D-01    0.999887D+00    0.306936D+01    0.351847D-03
   0    58    0.136966D-01    0.100019D+01   -0.407494D+00    0.226484D-04
   0    59    0.137206D-01    0.999455D+00   -0.694827D+01    0.189094D-02
   0    60    0.135870D-01    0.999538D+00   -0.719834D+01    0.201534D-02
   0    61    0.138641D-01    0.998924D+00    0.260560D+01    0.367218D-02
   0    62    0.135442D-01    0.100005D+01    0.177840D+01    0.915257D-04
   0    63    0.141524D-01    0.999701D+00   -0.698413D+01    0.153319D-02
   0    64    0.141919D-01    0.998815D+00    0.620671D+01    0.400028D-02
   0    65    0.146064D-01    0.998258D+00    0.307192D+01    0.516499D-02
   0    66    0.143000D-01    0.999113D+00   -0.236216D+01    0.232201D-02
   0    67    0.141164D-01    0.999603D+00    0.486296D+01    0.329674D-03
   0    68    0.144251D-01    0.998505D+00    0.291158D+01    0.425455D-02
   0    69    0.142356D-01    0.998404D+00   -0.468969D+01    0.452471D-02
   0    70    0.142632D-01    0.997916D+00    0.200652D+01    0.662041D-02
   0    71    0.144938D-01    0.997069D+00   -0.701349D-01    0.855243D-02
   0    72    0.140744D-01    0.997191D+00   -0.658932D+01    0.816366D-02
   0    73    0.141981D-01    0.998365D+00    0.494169D+00    0.483190D-02
   0    74    0.141189D-01    0.998339D+00    0.226453D+01    0.522695D-02
   0    75    0.145779D-01    0.999120D+00    0.320448D+01    0.267814D-02
   0    76    0.144313D-01    0.998713D+00    0.123376D+01    0.435488D-02
   0    77    0.142081D-01    0.997775D+00    0.175611D+01    0.650969D-02
   0    78    0.140624D-01    0.997872D+00   -0.187353D+01    0.622433D-02
   0    79    0.137776D-01    0.998191D+00   -0.423776D+01    0.581885D-02
   0    80    0.141727D-01    0.998203D+00   -0.362230D+01    0.511959D-02
   0    81    0.144453D-01    0.998141D+00    0.226046D+01    0.535316D-02
   0    82    0.141843D-01    0.998307D+00   -0.861648D+01    0.442802D-02
   0    83    0.141207D-01    0.999052D+00   -0.247875D+01    0.337020D-02
   0    84    0.143702D-01    0.998506D+00    0.406703D+00    0.402232D-02
   0    85    0.143720D-01    0.997448D+00   -0.174110D+01    0.725945D-02
   0    86    0.142756D-01    0.997286D+00    0.684960D+01    0.782098D-02
   0    87    0.141144D-01    0.996861D+00   -0.279714D+01    0.928890D-02
   0    88    0.140787D-01    0.997856D+00    0.612496D+01    0.586536D-02
   0    89    0.140558D-01    0.998030D+00    0.644437D+01    0.619083D-02
   0    90    0.141893D-01    0.997925D+00   -0.223139D+01    0.596731D-02
   0    91    0.141670D-01    0.998918D+00   -0.109879D+01    0.299609D-02
   0    92    0.143337D-01    0.999217D+00    0.760023D+01    0.178267D-02
   0    93    0.143353D-01    0.997535D+00   -0.759420D+01    0.760973D-02
   0    94    0.139221D-01    0.997625D+00    0.432319D+01    0.645888D-02
   0    95    0.144048D-01    0.999048D+00   -0.679172D+01    0.269619D-02
   0    96    0.144329D-01    0.998455D+00    0.458711D+01    0.447451D-02
   0    97    0.142732D-01    0.998411D+00    0.494988D+00    0.508890D-02
   0    98    0.140871D-01    0.998149D+00    0.775291D+01    0.538009D-02
   0    99    0.146355D-01    0.998004D+00   -0.503748D+01    0.650242D-02
   0   100    0.143078D-01    0.998428D+00   -0.220276D+01    0.498027D-02
   0   101    0.143905D-01    0.998536D+00   -0.489936D+01    0.470784D-02
   0   102    0.146403D-01    0.998871D+00   -0.357012D+01    0.369172D-02
   0   103    0.141672D-01    0.998469D+00   -0.589897D+01    0.446164D-02
   0   104    0.140929D-01    0.998051D+00    0.592303D+01    0.541020D-02
   0   105    0.141468D-01    0.998405D+00   -0.593610D+01    0.523363D-02
   0   106    0.143416D-01    0.998713D+00    0.375100D+01    0.428229D-02
   0   107    0.146721D-01    0.998134D+00    0.309230D+01    0.459154D-02
   0   108    0.146483D-01    0.997232D+00   -0.110563D+01    0.854036D-02
   0   109    0.148739D-01    0.996843D+00   -0.312250D+01    0.908442D-02
   0   110    0.147395D-01    0.995983D+00    0.719942D+01    0.116890D-01
   0   111    0.144368D-01    0.995635D+00    0.294499D+01    0.120924D-01
   0   112    0.145582D-01    0.997620D+00    0.642546D+01    0.705689D-02
   0   113    0.142199D-01    0.997788D+00    0.181572D+01    0.659425D-02
   0   114    0.144313D-01    0.998785D+00    0.698493D+01    0.332214D-02
   0   115    0.148288D-01    0.997952D+00   -0.133219D+00    0.632875D-02
   0   116    0.150242D-01    0.997453D+00   -0.280402D+00    0.699243D-02
   0   117    0.147070D-01    0.998122D+00   -0.712159D+00    0.561080D-02
   0   118    0.148707D-01    0.997489D+00   -0.200693D+01    0.698801D-02
   0   119    0.148495D-01    0.997250D+00   -0.242528D+01    0.716473D-02
   0   120    0.151993D-01    0.996575D+00   -0.575866D+01    0.934573D-02
   0   121    0.151442D-01    0.996102D+00   -0.836385D+00    0.117484D-01
   0   122    0.148812D-01    0.996934D+00   -0.720195D+01    0.793408D-02
   0   123    0.150264D-01    0.996666D+00    0.258469D+01    0.950738D-02
   0   124    0.149128D-01    0.997357D+00   -0.533121D+01    0.802819D-02
   0   125    0.147608D-01    0.997568D+00    0.686935D+01    0.644808D-02
   0   126    0.143254D-01    0.997589D+00    0.810310D+01    0.692108D-02
   0   127    0.147234D-01    0.997950D+00   -0.828217D+01    0.603667D-02
   0   128    0.145409D-01    0.997398D+00   -0.400365D+01    0.797409D-02
   0   129    0.145006D-01    0.997684D+00    0.136542D+01    0.648964D-02
   0   130    0.151556D-01    0.996767D+00    0.814164D+01    0.976231D-02
   0   131    0.152830D-01    0.994924D+00   -0.160618D+01    0.146876D-01
   0   132    0.159933D-01    0.993731D+00    0.136965D+01    0.179736D-01
   0   133    0.163611D-01    0.992408D+00    0.963741D+01    0.216532D-01
   0   134    0.167182D-01    0.990153D+00    0.426423D+01    0.284526D-01
   0   135    0.175155D-01    0.986690D+00   -0.581100D+01    0.372624D-01
   0   136    0.192321D-01    0.979860D+00    0.909198D+01    0.573470D-01
   0   137    0.223863D-01    0.971453D+00   -0.136335D+02    0.802611D-01
   0   138    0.264763D-01    0.955998D+00    0.101924D+02    0.118663D+00
   0   139    0.286599D-01    0.928411D+00   -0.569428D+01    0.178015D+00
   0   140    0.279510D-01    0.886483D+00   -0.980783D+01    0.243566D+00
   0   141    0.222749D-01    0.821890D+00   -0.255656D+01    0.303743D+00
   0   142    0.138936D-01    0.735145D+00    0.362244D+00    0.346760D+00
   0   143    0.725145D-02    0.630218D+00    0.395454D+01    0.374455D+00
   0   144    0.318827D-02    0.519914D+00    0.767627D+00    0.391236D+00
   0   145    0.125561D-02    0.414461D+00    0.875120D+00    0.401584D+00
   0   146    0.479929D-03    0.320819D+00    0.247471D+00    0.408147D+00
   0   147    0.163689D-03    0.242110D+00    0.215008D+00    0.412435D+00
   0   148    0.546981D-04    0.178717D+00    0.507338D-01    0.415301D+00
   0   149    0.184381D-04    0.129421D+00    0.115655D-01    0.417245D+00
   0   150    0.599359D-05    0.921688D-01    0.357947D-02    0.418576D+00
   0   151    0.191770D-05    0.646858D-01    0.714961D-03    0.419491D+00
   0   152    0.585224D-06    0.448199D-01    0.273448D-03    0.420119D+00
   0   153    0.171827D-06    0.307089D-01    0.621112D-04    0.420550D+00
   0   154    0.499358D-07    0.208355D-01    0.384084D-04    0.420845D+00
   0   155    0.150077D-07    0.140162D-01    0.946887D-05    0.421045D+00
   0   156    0.427896D-08    0.935883D-02    0.548200D-05    0.421180D+00
   0   157    0.123553D-08    0.620861D-02    0.888697D-06    0.421270D+00
   0   158    0.352007D-09    0.409555D-02    0.432044D-06    0.421331D+00
   0   159    0.109601D-09    0.268838D-02    0.228033D-07    0.421371D+00
   0   160    0.342015D-10    0.175713D-02    0.137981D-07    0.421397D+00
   0   161    0.103808D-10    0.114416D-02    0.109430D-07    0.421415D+00
   0   162    0.309112D-11    0.742583D-03    0.102443D-08    0.421426D+00
   0   163    0.905267D-12    0.480570D-03    0.172202D-09    0.421433D+00
   0   164    0.263187D-12    0.310224D-03    0.180851D-09    0.421438D+00
   0   165    0.766458D-13    0.199817D-03    0.351659D-10    0.421441D+00
   0   166    0.214675D-13    0.128454D-03    0.263340D-10    0.421443D+00
   0   167    0.614607D-14    0.824359D-04    0.685423D-11    0.421445D+00
   0   168    0.177615D-14    0.528239D-04    0.677652D-12    0.421446D+00
   0   169    0.476140D-15    0.338038D-04    0.214800D-12    0.421446D+00
   0   170    0.124519D-15    0.216066D-04    0.165664D-12    0.421446D+00
   0   171    0.340583D-16    0.137961D-04    0.319153D-13    0.421447D+00
   0   172    0.947283D-17    0.880078D-05    0.835875D-14    0.421447D+00
   0   173    0.250926D-17    0.560957D-05    0.115127D-14    0.421447D+00
   0   174    0.662242D-18    0.357288D-05    0.504062D-15    0.421447D+00
   0   175    0.172386D-18    0.227417D-05    0.104291D-15    0.421447D+00
   0   176    0.436176D-19    0.144668D-05    0.337681D-16    0.421447D+00
   0   177    0.115957D-19    0.919804D-06    0.159452D-16    0.421447D+00
   0   178    0.305493D-20    0.584536D-06    0.203864D-17    0.421447D+00
   0   179    0.777618D-21    0.371315D-06    0.709979D-18    0.421447D+00
   0   180    0.199345D-21    0.235780D-06    0.261470D-18    0.421447D+00
   0   181    0.505366D-22    0.149664D-06    0.715312D-19    0.421447D+00
   0   182    0.128939D-22    0.949710D-07    0.627937D-20    0.421447D+00
   0   183    0.316980D-23    0.602473D-07    0.371853D-20    0.421447D+00
   0   184    0.818434D-24    0.382093D-07    0.525926D-21    0.421447D+00
   0   185    0.207345D-24    0.242267D-07    0.132389D-21    0.421447D+00
   0   186    0.522966D-25    0.153576D-07    0.348543D-22    0.421447D+00
   0   187    0.127756D-25    0.973332D-08    0.875636D-23    0.421447D+00
   0   188    0.322397D-26    0.616761D-08    0.103290D-23    0.421447D+00
   0   189    0.795983D-27    0.390748D-08    0.693766D-24    0.421447D+00
   0   190    0.197729D-27    0.247517D-08    0.559123D-25    0.421447D+00
   0   191    0.485288D-28    0.156765D-08    0.293472D-25    0.421447D+00
   0   192    0.120596D-28    0.992735D-09    0.161448D-25    0.421447D+00
   0   193    0.286416D-29    0.628580D-09    0.304224D-26    0.421447D+00
   0   194    0.688108D-30    0.397957D-09    0.630346D-27    0.421447D+00
   0   195    0.169392D-30    0.251921D-09    0.868165D-28    0.421447D+00
   0   196    0.412023D-31    0.159458D-09    0.326739D-28    0.421447D+00
   0   197    0.100963D-31    0.100922D-09    0.768246D-29    0.421447D+00
   0   198    0.236116D-32    0.638690D-10    0.109360D-29    0.421447D+00
   0   199    0.582177D-33    0.404163D-10    0.696906D-30    0.421447D+00
   0   200    0.140453D-33    0.255735D-10    0.446715D-31    0.421447D+00
   0   201    0.347043D-34    0.161805D-10    0.141019D-31    0.421447D+00
   0   202    0.838592D-35    0.102368D-10    0.451820D-32    0.421447D+00
   0   203    0.205859D-35    0.647608D-11    0.857610D-33    0.421447D+00
   0   204    0.507330D-36    0.409670D-11    0.666639D-33    0.421447D+00
   0   205    0.118390D-36    0.259139D-11    0.127931D-33    0.421447D+00
   0   206    0.291506D-37    0.163911D-11    0.239645D-34    0.421447D+00
   0   207    0.718107D-38    0.103673D-11    0.337499D-35    0.421447D+00
   0   208    0.166702D-38    0.655696D-12    0.729792D-36    0.421447D+00
   0   209    0.397773D-39    0.414689D-12    0.184335D-36    0.421447D+00
   0   210    0.945336D-40    0.262256D-12    0.101665D-36    0.421447D+00
   0   211    0.225826D-40    0.165850D-12    0.330774D-37    0.421447D+00
   0   212    0.547581D-41    0.104879D-12    0.537413D-38    0.421447D+00
   0   213    0.131122D-41    0.663205D-13    0.467974D-39    0.421447D+00
   0   214    0.311445D-42    0.419367D-13    0.309769D-39    0.421447D+00
   0   215    0.767394D-43    0.265173D-13    0.998078D-40    0.421447D+00
   0   216    0.178447D-43    0.167669D-13    0.265556D-40    0.421447D+00
   0   217    0.428982D-44    0.106014D-13    0.217011D-41    0.421447D+00
   0   218    0.102913D-44    0.670294D-14    0.710783D-42    0.421447D+00
   0   219    0.252811D-45    0.423795D-14    0.110758D-42    0.421447D+00
   0   220    0.594535D-46    0.267939D-14    0.260165D-43    0.421447D+00
   0   221    0.137452D-46    0.169397D-14    0.182079D-43    0.421447D+00
   0   222    0.333055D-47    0.107094D-14    0.241786D-44    0.421447D+00
   0   223    0.776437D-48    0.677038D-15    0.590908D-45    0.421447D+00
   0   224    0.188619D-48    0.428007D-15    0.212605D-45    0.421447D+00
   0   225    0.441119D-49    0.270568D-15    0.480974D-46    0.421447D+00
   0   226    0.104881D-49    0.171037D-15    0.127615D-46    0.421447D+00
   0   227    0.250561D-50    0.108117D-15    0.915749D-48    0.421447D+00
   0   228    0.594766D-51    0.683407D-16    0.714577D-48    0.421447D+00
   0   229    0.143007D-51    0.431969D-16    0.127563D-48    0.421447D+00
   0   230    0.337264D-52    0.273029D-16    0.275275D-49    0.421447D+00
   0   231    0.801255D-53    0.172563D-16    0.481787D-50    0.421447D+00
   0   232    0.197061D-53    0.109060D-16    0.881835D-51    0.421447D+00
   0   233    0.471644D-54    0.689231D-17    0.559033D-51    0.421447D+00
   0   234    0.109347D-54    0.435551D-17    0.133889D-51    0.421447D+00
   0   235    0.256308D-55    0.275224D-17    0.326066D-52    0.421447D+00
   0   236    0.605330D-56    0.173902D-17    0.734595D-53    0.421447D+00
   0   237    0.146509D-56    0.109873D-17    0.157542D-53    0.421447D+00
   0   238    0.343053D-57    0.694135D-18    0.233160D-54    0.421447D+00
   0   239    0.812335D-58    0.438487D-18    0.273558D-55    0.421447D+00
   0   240    0.189473D-58    0.276966D-18    0.158669D-55    0.421447D+00
   0   241    0.443803D-59    0.174923D-18    0.471189D-56    0.421447D+00
   0   242    0.104895D-59    0.110463D-18    0.444418D-57    0.421447D+00
   0   243    0.255704D-60    0.697478D-19    0.328162D-57    0.421447D+00
   0   244    0.606284D-61    0.440333D-19    0.285144D-58    0.421447D+00
   0   245    0.145569D-61    0.277948D-19    0.575423D-59    0.421447D+00
   0   246    0.347384D-62    0.175417D-19    0.240291D-59    0.421447D+00
   0   247    0.823786D-63    0.110688D-19    0.260597D-60    0.421447D+00
   0   248    0.193988D-63    0.698296D-20    0.116174D-60    0.421447D+00
   0   249    0.448488D-64    0.440439D-20    0.683502D-61    0.421447D+00
   0   250    0.108030D-64    0.277734D-20    0.135986D-61    0.421447D+00
   0   251    0.256285D-65    0.175091D-20    0.784631D-63    0.421447D+00
   0   252    0.611616D-66    0.110352D-20    0.728648D-63    0.421447D+00
   0   253    0.141628D-66    0.695302D-21    0.119869D-63    0.421447D+00
   0   254    0.333974D-67    0.437957D-21    0.197310D-64    0.421447D+00
   0   255    0.792291D-68    0.275769D-21    0.751754D-65    0.421447D+00
   0   256    0.188812D-68    0.173583D-21    0.121060D-65    0.421447D+00
   0   257    0.444640D-69    0.109222D-21    0.309604D-66    0.421447D+00
   0   258    0.104596D-69    0.686970D-22    0.150334D-66    0.421447D+00
   0   259    0.244755D-70    0.431904D-22    0.181929D-67    0.421447D+00
   0   260    0.570727D-71    0.271423D-22    0.225364D-68    0.421447D+00
   0   261    0.135942D-71    0.170492D-22    0.178377D-68    0.421447D+00
   0   262    0.312966D-72    0.107042D-22    0.436554D-69    0.421447D+00
   0   263    0.746167D-73    0.671709D-23    0.103929D-69    0.421447D+00
   0   264    0.178667D-73    0.421288D-23    0.234707D-70    0.421447D+00
   0   265    0.410437D-74    0.264080D-23    0.207669D-71    0.421447D+00
   0   266    0.986680D-75    0.165441D-23    0.517062D-72    0.421447D+00
   0   267    0.232242D-75    0.103583D-23    0.205327D-72    0.421447D+00
   0   268    0.564779D-76    0.648128D-24    0.787603D-73    0.421447D+00
   0   269    0.130871D-76    0.405278D-24    0.133001D-73    0.421447D+00
   0   270    0.305893D-77    0.253253D-24    0.248600D-74    0.421447D+00
   0   271    0.711353D-78    0.158144D-24    0.387341D-75    0.421447D+00
   0   272    0.172071D-78    0.986830D-25    0.230333D-75    0.421447D+00
   0   273    0.398170D-79    0.615333D-25    0.299155D-76    0.421447D+00
   0   274    0.939850D-80    0.383396D-25    0.125825D-76    0.421447D+00
   0   275    0.224690D-80    0.238696D-25    0.203598D-77    0.421447D+00
   0   276    0.512362D-81    0.148489D-25    0.676312D-78    0.421447D+00
   0   277    0.121670D-81    0.922961D-26    0.535272D-79    0.421447D+00
   0   278    0.281754D-82    0.573200D-26    0.295395D-79    0.421447D+00
   0   279    0.656891D-83    0.355675D-26    0.380639D-80    0.421447D+00
   0   280    0.155589D-83    0.220504D-26    0.213013D-80    0.421447D+00
   0   281    0.367556D-84    0.136579D-26    0.101377D-81    0.421447D+00
   0   282    0.873110D-85    0.845190D-27    0.106358D-81    0.421447D+00
   0   283    0.206721D-85    0.522533D-27    0.168053D-82    0.421447D+00
   0   284    0.473406D-86    0.322743D-27    0.586182D-83    0.421447D+00
   0   285    0.113271D-86    0.199148D-27    0.133678D-83    0.421447D+00
   0   286    0.261199D-87    0.122762D-27    0.159923D-84    0.421447D+00
   0   287    0.635905D-88    0.755984D-28    0.734470D-85    0.421447D+00
   0   288    0.151014D-88    0.465068D-28    0.797538D-86    0.421447D+00
   0   289    0.349903D-89    0.285804D-28    0.424705D-86    0.421447D+00
   0   290    0.827384D-90    0.175453D-28    0.115550D-86    0.421447D+00
   0   291    0.195227D-90    0.107594D-28    0.872379D-88    0.421447D+00
   0   292    0.447683D-91    0.659094D-29    0.445622D-88    0.421447D+00
   0   293    0.106626D-91    0.403301D-29    0.564536D-89    0.421447D+00
   0   294    0.251649D-92    0.246506D-29    0.357866D-89    0.421447D+00
   0   295    0.586166D-93    0.150501D-29    0.808062D-90    0.421447D+00
   0   296    0.136850D-93    0.917823D-30    0.129440D-90    0.421447D+00
   0   297    0.324859D-94    0.559088D-30    0.427665D-91    0.421447D+00
   0   298    0.778742D-95    0.340172D-30    0.463827D-92    0.421447D+00
   0   299    0.179015D-95    0.206733D-30    0.179878D-92    0.421447D+00
   0   300    0.420247D-96    0.125490D-30    0.544287D-93    0.421447D+00
   0   301    0.985245D-97    0.760839D-31    0.702536D-94    0.421447D+00
   0   302    0.232241D-97    0.460740D-31    0.118870D-94    0.421447D+00
   0   303    0.537620D-98    0.278673D-31    0.225202D-95    0.421447D+00
   0   304    0.125098D-98    0.168347D-31    0.114391D-95    0.421447D+00
   0   305    0.304430D-99    0.101575D-31    0.395053D-96    0.421447D+00
   0   306    0.697052-100    0.612109D-32    0.641546D-97    0.421447D+00
   0   307    0.164919-100    0.368413D-32    0.594601D-98    0.421447D+00
   0   308    0.396287-101    0.221461D-32    0.259756D-98    0.421447D+00
   0   309    0.929989-102    0.132959D-32    0.110090D-98    0.421447D+00
   0   310    0.218288-102    0.797237D-33    0.256043D-99    0.421447D+00
   0   311    0.504841-103    0.477428D-33    0.239342-100    0.421447D+00
   0   312    0.117264-103    0.285545D-33    0.599837-101    0.421447D+00
   0   313    0.271905-104    0.170563D-33    0.410862-101    0.421447D+00
   0   314    0.663218-105    0.101750D-33    0.232778-102    0.421447D+00
   0   315    0.158984-105    0.606215D-34    0.119090-102    0.421447D+00
   0   316    0.380890-106    0.360707D-34    0.243274-103    0.421447D+00
   0   317    0.873815-107    0.214346D-34    0.104338-103    0.421447D+00
   0   318    0.208086-107    0.127207D-34    0.979335-105    0.421447D+00
   0   319    0.479141-108    0.753937D-35    0.385680-105    0.421447D+00
   0   320    0.110757-108    0.446261D-35    0.137239-105    0.421447D+00
   0   321    0.262391-109    0.263796D-35    0.114759-106    0.421447D+00
   0   322    0.628453-110    0.155730D-35    0.234515-107    0.421447D+00
   0   323    0.150207-110    0.918125D-36    0.138610-107    0.421447D+00
   0   324    0.347809-111    0.540570D-36    0.363078-108    0.421447D+00
   0   325    0.809065-112    0.317850D-36    0.543798-109    0.421447D+00
   0   326    0.184915-112    0.186642D-36    0.107431-109    0.421447D+00
   0   327    0.438315-113    0.109450D-36    0.141169-110    0.421447D+00
   0   328    0.103275-113    0.640972D-37    0.138788-110    0.421447D+00
   0   329    0.248534-114    0.374866D-37    0.261060-111    0.421447D+00
   0   330    0.561126-115    0.218941D-37    0.267285-112    0.421447D+00
   0   331    0.130792-115    0.127700D-37    0.176064-112    0.421447D+00
   0   332    0.303685-116    0.743814D-38    0.425557-113    0.421447D+00
   0   333    0.716462-117    0.432663D-38    0.957266-114    0.421447D+00
   0   334    0.162976-117    0.251330D-38    0.159098-114    0.421447D+00
   0   335    0.387952-118    0.145796D-38    0.546713-115    0.421447D+00
   0   336    0.925021-119    0.844613D-39    0.633255-116    0.421447D+00
   0   337    0.214222-119    0.488625D-39    0.189026-116    0.421447D+00
   0   338    0.521442-120    0.282292D-39    0.441714-117    0.421447D+00
   0   339    0.124251-120    0.162865D-39    0.116374-117    0.421447D+00
   0   340    0.282349-121    0.938342D-40    0.323902-118    0.421447D+00
   0   341    0.657895-122    0.539882D-40    0.926146-119    0.421447D+00
   0   342    0.155334-122    0.310198D-40    0.117643-119    0.421447D+00
   0   343    0.362333-123    0.177985D-40    0.234844-120    0.421447D+00
   0   344    0.844414-124    0.101983D-40    0.848535-121    0.421447D+00
   0   345    0.196883-124    0.583547D-41    0.205500-121    0.421447D+00
   0   346    0.475644-125    0.333445D-41    0.179501-122    0.421447D+00
   0   347    0.113909-125    0.190272D-41    0.132270-122    0.421447D+00
   0   348    0.265018-126    0.108424D-41    0.146410-123    0.421447D+00
   0   349    0.614505-127    0.616983D-42    0.367661-124    0.421447D+00
   0   350    0.143839-127    0.350608D-42    0.186381-124    0.421447D+00
   0   351    0.339981-128    0.198962D-42    0.119341-125    0.421447D+00
   0   352    0.795697-129    0.112750D-42    0.372329-126    0.421447D+00
   0   353    0.181038-129    0.638062D-43    0.183339-126    0.421447D+00
   0   354    0.436567-130    0.360584D-43    0.411648-127    0.421447D+00
   0   355    0.102044-130    0.203493D-43    0.425112-128    0.421447D+00
   0   356    0.246581-131    0.114680D-43    0.334245-128    0.421447D+00
   0   357    0.572637-132    0.645395D-44    0.274794-129    0.421447D+00
   0   358    0.131469-132    0.362711D-44    0.593766-130    0.421447D+00
   0   359    0.320435-133    0.203560D-44    0.432994-130    0.421447D+00
   0   360    0.765149-134    0.114083D-44    0.281779-131    0.421447D+00
   0   361    0.176893-134    0.638481D-45    0.612457-132    0.421447D+00
   0   362    0.420537-135    0.356838D-45    0.487166-132    0.421447D+00
   0   363    0.971638-136    0.199155D-45    0.732617-133    0.421447D+00
   0   364    0.229336-136    0.110996D-45    0.165491-133    0.421447D+00
   0   365    0.522459-137    0.617760D-46    0.520579-134    0.421447D+00
   0   366    0.121579-137    0.343344D-46    0.818177-135    0.421447D+00
   0   367    0.286827-138    0.190561D-46    0.406345-135    0.421447D+00
   0   368    0.680379-139    0.105618D-46    0.181893-136    0.421447D+00
   0   369    0.154865-139    0.584570D-47    0.705795-137    0.421447D+00
   0   370    0.363982-140    0.323096D-47    0.191705-137    0.421447D+00
   0   371    0.845455-141    0.178330D-47    0.252497-138    0.421447D+00
   0   372    0.197699-141    0.982906D-48    0.759466-139    0.421447D+00
   0   373    0.467752-142    0.541000D-48    0.234039-139    0.421447D+00
   0   374    0.109263-142    0.297357D-48    0.143443-139    0.421447D+00
   0   375    0.259619-143    0.163214D-48    0.113864-140    0.421447D+00
   0   376    0.622754-144    0.894606D-49    0.160992-141    0.421447D+00
   0   377    0.141549-144    0.489670D-49    0.203888-141    0.421447D+00
   0   378    0.341308-145    0.267653D-49    0.282898-142    0.421447D+00
   0   379    0.789107-146    0.146096D-49    0.307662-143    0.421447D+00
   0   380    0.185417-146    0.796344D-50    0.153415-143    0.421447D+00
   0   381    0.435232-147    0.433472D-50    0.147653-144    0.421447D+00
   0   382    0.100930-147    0.235623D-50    0.627297-145    0.421447D+00
   0   383    0.232000-148    0.127901D-50    0.326355-145    0.421447D+00
   0   384    0.556783-149    0.693307D-51    0.471630-146    0.421447D+00
   0   385    0.135083-149    0.375298D-51    0.817972-147    0.421447D+00
   0   386    0.315687-150    0.202873D-51    0.225210-147    0.421447D+00
   0   387    0.736703-151    0.109514D-51    0.587588-148    0.421447D+00
   0   388    0.177606-151    0.590358D-52    0.195906-148    0.421447D+00
   0   389    0.411144-152    0.317803D-52    0.600435-149    0.421447D+00
   0   390    0.963825-153    0.170844D-52    0.853372-150    0.421447D+00
   0   391    0.231660-153    0.917142D-53    0.922785-151    0.421447D+00
   0   392    0.540576-154    0.491659D-53    0.179448-151    0.421447D+00
   0   393    0.123328-154    0.263184D-53    0.119403-151    0.421447D+00
   0   394    0.282128-155    0.140652D-53    0.267380-152    0.421447D+00
   0   395    0.679269-156    0.749961D-54    0.652086-153    0.421447D+00
   0   396    0.155523-156    0.398042D-54    0.226840-153    0.421447D+00
   0   397    0.378075-157    0.208524D-54    0.188435-154    0.421447D+00