variables =  "IG"  "JG"  "PHI"  "Temp."  "Latent_heat"  "mm"
ZONE  I=  401  J=  101
   0     0    0.100000D+01    0.234133D+00    0.128644D-06    0.412814D+00
   0     1    0.100000D+01    0.234133D+00    0.547136D-06    0.412814D+00
   0     2    0.100000D+01    0.253441D+00    0.342687D-05    0.411863D+00
   0     3    0.100000D+01    0.290609D+00    0.158718D-04    0.409889D+00
   0     4    0.100000D+01    0.342946D+00    0.916018D-04    0.406738D+00
   0     5    0.100000D+01    0.406913D+00    0.501084D-03    0.402151D+00
   0     6    0.999998D+00    0.478639D+00    0.268127D-02    0.395711D+00
   0     7    0.999986D+00    0.554497D+00    0.263430D-01    0.386737D+00
   0     8    0.999908D+00    0.631632D+00    0.134277D+00    0.374043D+00
   0     9    0.999374D+00    0.708390D+00    0.102746D+01    0.355323D+00
   0    10    0.995883D+00    0.784551D+00    0.413212D+01    0.325432D+00
   0    11    0.974026D+00    0.859981D+00    0.372251D+02    0.272108D+00
   0    12    0.850062D+00    0.924086D+00    0.137863D+03    0.185171D+00
   0    13    0.457802D+00    0.912658D+00    0.346490D+03    0.205429D+00
   0    14    0.145028D+00    0.727960D+00    0.678303D+02    0.349320D+00
   0    15    0.374880D-01    0.486884D+00    0.575289D+02    0.394981D+00
   0    16    0.927370D-02    0.295087D+00    0.435447D+01    0.409686D+00
   0    17    0.218785D-02    0.168623D+00    0.163129D+01    0.415734D+00
   0    18    0.520057D-03    0.922636D-01    0.376640D+00    0.418581D+00
   0    19    0.124383D-03    0.487383D-01    0.966846D-01    0.420002D+00
   0    20    0.278447D-04    0.249741D-01    0.303640D-01    0.420725D+00
   0    21    0.644993D-05    0.124459D-01    0.870404D-02    0.421092D+00
   0    22    0.140890D-05    0.604064D-02    0.113426D-02    0.421276D+00
   0    23    0.311453D-06    0.285772D-02    0.255186D-03    0.421366D+00
   0    24    0.670641D-07    0.131832D-02    0.113304D-03    0.421410D+00
   0    25    0.144197D-07    0.593184D-03    0.108236D-04    0.421430D+00
   0    26    0.291576D-08    0.260356D-03    0.353590D-05    0.421440D+00
   0    27    0.574172D-09    0.111474D-03    0.112952D-05    0.421444D+00
   0    28    0.114614D-09    0.465589D-04    0.203181D-06    0.421446D+00
   0    29    0.222854D-10    0.189690D-04    0.461066D-07    0.421446D+00
   0    30    0.417367D-11    0.753852D-05    0.716598D-08    0.421447D+00
   0    31    0.768288D-12    0.292221D-05    0.105527D-08    0.421447D+00
   0    32    0.133501D-12    0.110487D-05    0.223005D-09    0.421447D+00
   0    33    0.220012D-13    0.407459D-06    0.369700D-10    0.421447D+00
   0    34    0.345347D-14    0.146567D-06    0.624914D-11    0.421447D+00
   0    35    0.508102D-15    0.514264D-07    0.111241D-11    0.421447D+00
   0    36    0.754186D-16    0.176020D-07    0.126728D-12    0.421447D+00
   0    37    0.105639D-16    0.587773D-08    0.224809D-13    0.421447D+00
   0    38    0.142251D-17    0.191505D-08    0.395154D-14    0.421447D+00
   0    39    0.186952D-18    0.608895D-09    0.391774D-15    0.421447D+00
   0    40    0.236891D-19    0.188960D-09    0.517376D-16    0.421447D+00
   0    41    0.285339D-20    0.572467D-10    0.833549D-17    0.421447D+00
   0    42    0.344468D-21    0.169347D-10    0.828038D-18    0.421447D+00
   0    43    0.388420D-22    0.489277D-11    0.131746D-18    0.421447D+00
   0    44    0.438785D-23    0.138099D-11    0.133969D-19    0.421447D+00
   0    45    0.484157D-24    0.380884D-12    0.186962D-20    0.421447D+00
   0    46    0.508737D-25    0.102680D-12    0.198113D-21    0.421447D+00
   0    47    0.514127D-26    0.270635D-13    0.171977D-22    0.421447D+00
   0    48    0.528993D-27    0.697610D-14    0.186873D-23    0.421447D+00
   0    49    0.509195D-28    0.175912D-14    0.192871D-24    0.421447D+00
   0    50    0.494222D-29    0.434068D-15    0.195316D-25    0.421447D+00
   0    51    0.467010D-30    0.104839D-15    0.166793D-26    0.421447D+00
   0    52    0.428242D-31    0.247925D-16    0.161495D-27    0.421447D+00
   0    53    0.375282D-32    0.574208D-17    0.176933D-28    0.421447D+00
   0    54    0.325584D-33    0.130286D-17    0.134831D-29    0.421447D+00
   0    55    0.276386D-34    0.289683D-18    0.117291D-30    0.421447D+00
   0    56    0.230887D-35    0.631353D-19    0.100620D-31    0.421447D+00
   0    57    0.184010D-36    0.134915D-19    0.838319D-33    0.421447D+00
   0    58    0.146854D-37    0.282755D-20    0.807312D-34    0.421447D+00
   0    59    0.114863D-38    0.581343D-21    0.549635D-35    0.421447D+00
   0    60    0.863673D-40    0.117285D-21    0.461746D-36    0.421447D+00
   0    61    0.646628D-41    0.232249D-22    0.319982D-37    0.421447D+00
   0    62    0.478042D-42    0.451518D-23    0.268680D-38    0.421447D+00
   0    63    0.351411D-43    0.862014D-24    0.190870D-39    0.421447D+00
   0    64    0.245957D-44    0.161650D-24    0.132483D-40    0.421447D+00
   0    65    0.170009D-45    0.297827D-25    0.907975D-42    0.421447D+00
   0    66    0.115603D-46    0.539238D-26    0.670471D-43    0.421447D+00
   0    67    0.761652D-48    0.959672D-27    0.452664D-44    0.421447D+00
   0    68    0.508077D-49    0.167915D-27    0.327082D-45    0.421447D+00
   0    69    0.325503D-50    0.288916D-28    0.201341D-46    0.421447D+00
   0    70    0.203140D-51    0.488953D-29    0.145404D-47    0.421447D+00
   0    71    0.125357D-52    0.814072D-30    0.831901D-49    0.421447D+00
   0    72    0.772570D-54    0.133367D-30    0.521945D-50    0.421447D+00
   0    73    0.462434D-55    0.215036D-31    0.336180D-51    0.421447D+00
   0    74    0.272624D-56    0.341300D-32    0.207634D-52    0.421447D+00
   0    75    0.159124D-57    0.533340D-33    0.107450D-53    0.421447D+00
   0    76    0.908925D-59    0.820725D-34    0.652964D-55    0.421447D+00
   0    77    0.503378D-60    0.124393D-34    0.354315D-56    0.421447D+00
   0    78    0.279743D-61    0.185727D-35    0.214051D-57    0.421447D+00
   0    79    0.152171D-62    0.273220D-36    0.113081D-58    0.421447D+00
   0    80    0.818951D-64    0.396079D-37    0.608473D-60    0.421447D+00
   0    81    0.437083D-65    0.565920D-38    0.342856D-61    0.421447D+00
   0    82    0.229352D-66    0.797081D-39    0.179728D-62    0.421447D+00
   0    83    0.116573D-67    0.110686D-39    0.986506D-64    0.421447D+00
   0    84    0.584513D-69    0.151565D-40    0.469295D-65    0.421447D+00
   0    85    0.287829D-70    0.204682D-41    0.250775D-66    0.421447D+00
   0    86    0.142024D-71    0.272649D-42    0.121864D-67    0.421447D+00
   0    87    0.699504D-73    0.358291D-43    0.614353D-69    0.421447D+00
   0    88    0.338749D-74    0.464553D-44    0.304888D-70    0.421447D+00
   0    89    0.157361D-75    0.594380D-45    0.146728D-71    0.421447D+00
   0    90    0.726270D-77    0.750554D-46    0.650335D-73    0.421447D+00
   0    91    0.332385D-78    0.935507D-47    0.297071D-74    0.421447D+00
   0    92    0.151165D-79    0.115111D-47    0.137595D-75    0.421447D+00
   0    93    0.671006D-81    0.139845D-48    0.679301D-77    0.421447D+00
   0    94    0.300410D-82    0.167761D-49    0.282448D-78    0.421447D+00
   0    95    0.130713D-83    0.198748D-50    0.123550D-79    0.421447D+00
   0    96    0.565537D-85    0.232561D-51    0.541238D-81    0.421447D+00
   0    97    0.237116D-86    0.268809D-52    0.242101D-82    0.421447D+00
   0    98    0.997328D-88    0.306955D-53    0.996163D-84    0.421447D+00
   0    99    0.418826D-89    0.346319D-54    0.428380D-85    0.421447D+00
   0   100    0.172709D-90    0.386100D-55    0.189465D-86    0.421447D+00
   0   101    0.683914D-92    0.425395D-56    0.734195D-88    0.421447D+00
   0   102    0.276373D-93    0.463233D-57    0.287388D-89    0.421447D+00
   0   103    0.109912D-94    0.498617D-58    0.122915D-90    0.421447D+00
   0   104    0.421963D-96    0.530568D-59    0.494744D-92    0.421447D+00
   0   105    0.163635D-97    0.558168D-60    0.180823D-93    0.421447D+00
   0   106    0.624266D-99    0.580606D-61    0.730245D-95    0.421447D+00
   0   107    0.235807-100    0.597219D-62    0.270512D-96    0.421447D+00
   0   108    0.881820-102    0.607523D-63    0.101195D-97    0.421447D+00
   0   109    0.326300-103    0.611237D-64    0.369309D-99    0.421447D+00
   0   110    0.119047-104    0.608295D-65    0.150408-100    0.421447D+00
   0   111    0.421502-106    0.598847D-66    0.528075-102    0.421447D+00
   0   112    0.150594-107    0.583249D-67    0.182829-103    0.421447D+00
   0   113    0.537849-109    0.562037D-68    0.684124-105    0.421447D+00
   0   114    0.187426-110    0.535904D-69    0.227714-106    0.421447D+00
   0   115    0.642386-112    0.505658D-70    0.802876-108    0.421447D+00
   0   116    0.218170-113    0.472183D-71    0.296511-109    0.421447D+00
   0   117    0.734908-115    0.436398D-72    0.934561-111    0.421447D+00
   0   118    0.245323-116    0.399217D-73    0.327764-112    0.421447D+00
   0   119    0.814818-118    0.361512D-74    0.110110-113    0.421447D+00
   0   120    0.265740-119    0.324084D-75    0.356822-115    0.421447D+00
   0   121    0.849342-121    0.287638D-76    0.119726-116    0.421447D+00
   0   122    0.271538-122    0.252768D-77    0.378614-118    0.421447D+00
   0   123    0.862732-124    0.219946D-78    0.124854-119    0.421447D+00
   0   124    0.270572-125    0.189522D-79    0.400048-121    0.421447D+00
   0   125    0.849427-127    0.161728D-80    0.116537-122    0.421447D+00
   0   126    0.259429-128    0.136685D-81    0.364927-124    0.421447D+00
   0   127    0.792060-130    0.114419D-82    0.113617-125    0.421447D+00
   0   128    0.240794-131    0.948735D-84    0.354890-127    0.421447D+00
   0   129    0.725498-133    0.779275D-85    0.108137-128    0.421447D+00
   0   130    0.214929-134    0.634110D-86    0.323655-130    0.421447D+00
   0   131    0.633407-136    0.511203D-87    0.979080-132    0.421447D+00
   0   132    0.182961-137    0.408325D-88    0.293370-133    0.421447D+00
   0   133    0.532443-139    0.323167D-89    0.811294-135    0.421447D+00
   0   134    0.153089-140    0.253447D-90    0.229776-136    0.421447D+00
   0   135    0.430217-142    0.196974D-91    0.713536-138    0.421447D+00
   0   136    0.121644-143    0.151712D-92    0.195424-139    0.421447D+00
   0   137    0.338402-145    0.115809D-93    0.541161-141    0.421447D+00
   0   138    0.923919-147    0.876211D-95    0.154554-142    0.421447D+00
   0   139    0.250370-148    0.657109D-96    0.419081-144    0.421447D+00
   0   140    0.678464-150    0.488489D-97    0.115179-145    0.421447D+00
   0   141    0.181762-151    0.359985D-98    0.312658-147    0.421447D+00
   0   142    0.490782-153    0.262996D-99    0.811250-149    0.421447D+00
   0   143    0.129973-154    0.190491-100    0.222082-150    0.421447D+00
   0   144    0.340475-156    0.136799-101    0.575120-152    0.421447D+00
   0   145    0.886638-158    0.974077-103    0.153203-153    0.421447D+00
   0   146    0.226370-159    0.687753-104    0.390457-155    0.421447D+00
   0   147    0.579790-161    0.481527-105    0.102066-156    0.421447D+00
   0   148    0.146766-162    0.334333-106    0.267968-158    0.421447D+00
   0   149    0.366458-164    0.230213-107    0.672139-160    0.421447D+00
   0   150    0.917906-166    0.157215-108    0.167544-161    0.421447D+00
   0   151    0.225749-167    0.106486-109    0.423424-163    0.421447D+00
   0   152    0.554575-169    0.715390-111    0.100418-164    0.421447D+00
   0   153    0.134432-170    0.476726-112    0.257581-166    0.421447D+00
   0   154    0.324876-172    0.315130-113    0.597250-168    0.421447D+00
   0   155    0.773850-174    0.206644-114    0.150762-169    0.421447D+00
   0   156    0.182484-175    0.134428-115    0.354420-171    0.421447D+00
   0   157    0.427864-177    0.867582-117    0.818909-173    0.421447D+00
   0   158    0.100301-178    0.555522-118    0.199291-174    0.421447D+00
   0   159    0.232546-180    0.352924-119    0.451293-176    0.421447D+00
   0   160    0.531184-182    0.222469-120    0.108456-177    0.421447D+00
   0   161    0.120793-183    0.139150-121    0.247286-179    0.421447D+00
   0   162    0.272524-185    0.863661-123    0.551343-181    0.421447D+00
   0   163    0.606124-187    0.531941-124    0.126333-182    0.421447D+00
   0   164    0.134657-188    0.325134-125    0.272338-184    0.421447D+00
   0   165    0.296686-190    0.197223-126    0.628973-186    0.421447D+00
   0   166    0.654030-192    0.118731-127    0.132777-187    0.421447D+00
   0   167    0.142332-193    0.709419-129    0.306915-189    0.421447D+00
   0   168    0.305177-195    0.420714-130    0.657732-191    0.421447D+00
   0   169    0.647645-197    0.247647-131    0.136569-192    0.421447D+00
   0   170    0.138500-198    0.144697-132    0.292438-194    0.421447D+00
   0   171    0.292052-200    0.839225-134    0.632748-196    0.421447D+00
   0   172    0.611701-202    0.483179-135    0.130704-197    0.421447D+00
   0   173    0.125889-203    0.276162-136    0.283190-199    0.421447D+00
   0   174    0.262027-205    0.156697-137    0.583916-201    0.421447D+00
   0   175    0.537235-207    0.882698-139    0.120909-202    0.421447D+00
   0   176    0.109144-208    0.493669-140    0.252709-204    0.421447D+00
   0   177    0.217824-210    0.274123-141    0.503097-206    0.421447D+00
   0   178    0.433536-212    0.151131-142    0.100278-207    0.421447D+00
   0   179    0.869037-214    0.827329-144    0.195884-209    0.421447D+00
   0   180    0.171550-215    0.449709-145    0.403069-211    0.421447D+00
   0   181    0.336012-217    0.242732-146    0.791924-213    0.421447D+00
   0   182    0.655789-219    0.130101-147    0.154253-214    0.421447D+00
   0   183    0.125780-220    0.692473-149    0.301225-216    0.421447D+00
   0   184    0.239355-222    0.366025-150    0.567048-218    0.421447D+00
   0   185    0.459885-224    0.192139-151    0.112001-219    0.421447D+00
   0   186    0.879493-226    0.100168-152    0.215908-221    0.421447D+00
   0   187    0.164440-227    0.518644-154    0.411817-223    0.421447D+00
   0   188    0.304310-229    0.266713-155    0.767581-225    0.421447D+00
   0   189    0.570576-231    0.136229-156    0.139131-226    0.421447D+00
   0   190    0.104831-232    0.691126-158    0.258007-228    0.421447D+00
   0   191    0.192880-234    0.348272-159    0.493360-230    0.421447D+00
   0   192    0.351476-236    0.174328-160    0.872832-232    0.421447D+00
   0   193    0.634803-238    0.866793-162    0.160687-233    0.421447D+00
   0   194    0.113531-239    0.428129-163    0.299332-235    0.421447D+00
   0   195    0.201477-241    0.210066-164    0.527779-237    0.421447D+00
   0   196    0.357610-243    0.102394-165    0.934601-239    0.421447D+00
   0   197    0.630395-245    0.495834-167    0.164443-240    0.421447D+00
   0   198    0.109625-246    0.238538-168    0.291137-242    0.421447D+00
   0   199    0.191339-248    0.114012-169    0.496040-244    0.421447D+00
   0   200    0.330913-250    0.541403-171    0.882262-246    0.421447D+00
   0   201    0.566816-252    0.255437-172    0.150225-247    0.421447D+00
   0   202    0.970063-254    0.119743-173    0.264815-249    0.421447D+00
   0   203    0.162860-255    0.557739-175    0.458482-251    0.421447D+00
   0   204    0.275312-257    0.258128-176    0.741357-253    0.421447D+00
   0   205    0.457064-259    0.118707-177    0.128955-254    0.421447D+00
   0   206    0.757585-261    0.542452-179    0.210634-256    0.421447D+00
   0   207    0.125064-262    0.246322-180    0.346944-258    0.421447D+00
   0   208    0.204719-264    0.111151-181    0.585940-260    0.421447D+00
   0   209    0.333102-266    0.498423-183    0.959925-262    0.421447D+00
   0   210    0.533174-268    0.222112-184    0.151774-263    0.421447D+00
   0   211    0.863961-270    0.983650-186    0.247046-265    0.421447D+00
   0   212    0.137879-271    0.432930-187    0.392314-267    0.421447D+00
   0   213    0.218656-273    0.189370-188    0.631139-269    0.421447D+00
   0   214    0.345851-275    0.823247-190    0.102609-270    0.421447D+00
   0   215    0.541100-277    0.355701-191    0.162398-272    0.421447D+00
   0   216    0.846514-279    0.152752-192    0.251942-274    0.421447D+00
   0   217    0.131007-280    0.651992-194    0.389524-276    0.421447D+00
   0   218    0.202481-282    0.276606-195    0.603156-278    0.421447D+00
   0   219    0.308048-284    0.116642-196    0.925006-280    0.421447D+00
   0   220    0.467630-286    0.488912-198    0.142784-281    0.421447D+00
   0   221    0.705243-288    0.203703-199    0.218148-283    0.421447D+00
   0   222    0.106751-289    0.843656-201    0.327919-285    0.421447D+00
   0   223    0.159711-291    0.347330-202    0.504871-287    0.421447D+00
   0   224    0.234772-293    0.142147-203    0.729662-289    0.421447D+00
   0   225    0.345025-295    0.578307-205    0.111068-290    0.421447D+00
   0   226    0.509226-297    0.233892-206    0.161563-292    0.421447D+00
   0   227    0.740864-299    0.940404-208    0.236640-294    0.421447D+00
   0   228    0.108377-300    0.375895-209    0.341901-296    0.421447D+00
   0   229    0.155238-302    0.149375-210    0.501398-298    0.421447D+00
   0   230    0.223628-304    0.590147-212    0.711456-300    0.421447D+00
   0   231    0.321329-306    0.231803-213    0.105067-301    0.421447D+00
   0   232    0.457093-308    0.905234-215    0.148404-303    0.421447D+00
   0   233    0.641925-310    0.351477-216    0.215271-305    0.421447D+00
   0   234    0.899568-312    0.135685-217    0.297021-307    0.421447D+00
   0   235    0.125150-313    0.520807-219    0.414642-309    0.421447D+00
   0   236    0.174525-315    0.198764-220    0.588378-311    0.421447D+00
   0   237    0.240146-317    0.754263-222    0.823351-313    0.421447D+00
   0   238    0.327664-319    0.284603-223    0.110967-314    0.421447D+00
   0   239    0.177864-321    0.106781-224    0.212448-316    0.421447D+00
   0   240    0.000000D+00    0.398380-226    0.000000D+00    0.421447D+00
   0   241    0.000000D+00    0.147793-227    0.000000D+00    0.421447D+00
   0   242    0.000000D+00    0.545219-229    0.000000D+00    0.421447D+00
   0   243    0.000000D+00    0.200012-230    0.000000D+00    0.421447D+00
   0   244    0.000000D+00    0.729656-232    0.000000D+00    0.421447D+00
   0   245    0.000000D+00    0.264705-233    0.000000D+00    0.421447D+00
   0   246    0.000000D+00    0.954985-235    0.000000D+00    0.421447D+00
   0   247    0.000000D+00    0.342632-236    0.000000D+00    0.421447D+00
   0   248    0.000000D+00    0.122254-237    0.000000D+00    0.421447D+00
   0   249    0.000000D+00    0.433818-239    0.000000D+00    0.421447D+00
   0   250    0.000000D+00    0.153098-240    0.000000D+00    0.421447D+00
   0   251    0.000000D+00    0.537349-242    0.000000D+00    0.421447D+00
   0   252    0.000000D+00    0.187574-243    0.000000D+00    0.421447D+00
   0   253    0.000000D+00    0.651220-245    0.000000D+00    0.421447D+00
   0   254    0.000000D+00    0.224867-246    0.000000D+00    0.421447D+00
   0   255    0.000000D+00    0.772279-248    0.000000D+00    0.421447D+00
   0   256    0.000000D+00    0.263803-249    0.000000D+00    0.421447D+00
   0   257    0.000000D+00    0.896288-251    0.000000D+00    0.421447D+00
   0   258    0.000000D+00    0.302890-252    0.000000D+00    0.421447D+00
   0   259    0.000000D+00    0.101812-253    0.000000D+00    0.421447D+00
   0   260    0.000000D+00    0.340402-255    0.000000D+00    0.421447D+00
   0   261    0.000000D+00    0.113207-256    0.000000D+00    0.421447D+00
   0   262    0.000000D+00    0.374500-258    0.000000D+00    0.421447D+00
   0   263    0.000000D+00    0.123233-259    0.000000D+00    0.421447D+00
   0   264    0.000000D+00    0.403376-261    0.000000D+00    0.421447D+00
   0   265    0.000000D+00    0.131342-262    0.000000D+00    0.421447D+00
   0   266    0.000000D+00    0.425417-264    0.000000D+00    0.421447D+00
   0   267    0.000000D+00    0.137072-265    0.000000D+00    0.421447D+00
   0   268    0.000000D+00    0.439352-267    0.000000D+00    0.421447D+00
   0   269    0.000000D+00    0.140091-268    0.000000D+00    0.421447D+00
   0   270    0.000000D+00    0.444375-270    0.000000D+00    0.421447D+00
   0   271    0.000000D+00    0.140228-271    0.000000D+00    0.421447D+00
   0   272    0.000000D+00    0.440220-273    0.000000D+00    0.421447D+00
   0   273    0.000000D+00    0.137487-274    0.000000D+00    0.421447D+00
   0   274    0.000000D+00    0.427187-276    0.000000D+00    0.421447D+00
   0   275    0.000000D+00    0.132051-277    0.000000D+00    0.421447D+00
   0   276    0.000000D+00    0.406105-279    0.000000D+00    0.421447D+00
   0   277    0.000000D+00    0.124255-280    0.000000D+00    0.421447D+00
   0   278    0.000000D+00    0.378243-282    0.000000D+00    0.421447D+00
   0   279    0.000000D+00    0.114556-283    0.000000D+00    0.421447D+00
   0   280    0.000000D+00    0.345190-285    0.000000D+00    0.421447D+00
   0   281    0.000000D+00    0.103490-286    0.000000D+00    0.421447D+00
   0   282    0.000000D+00    0.308704-288    0.000000D+00    0.421447D+00
   0   283    0.000000D+00    0.916212-290    0.000000D+00    0.421447D+00
   0   284    0.000000D+00    0.270560-291    0.000000D+00    0.421447D+00
   0   285    0.000000D+00    0.794968-293    0.000000D+00    0.421447D+00
   0   286    0.000000D+00    0.232413-294    0.000000D+00    0.421447D+00
   0   287    0.000000D+00    0.676080-296    0.000000D+00    0.421447D+00
   0   288    0.000000D+00    0.195691-297    0.000000D+00    0.421447D+00
   0   289    0.000000D+00    0.563613-299    0.000000D+00    0.421447D+00
   0   290    0.000000D+00    0.161523-300    0.000000D+00    0.421447D+00
   0   291    0.000000D+00    0.460612-302    0.000000D+00    0.421447D+00
   0   292    0.000000D+00    0.130704-303    0.000000D+00    0.421447D+00
   0   293    0.000000D+00    0.369061-305    0.000000D+00    0.421447D+00
   0   294    0.000000D+00    0.103698-306    0.000000D+00    0.421447D+00
   0   295    0.000000D+00    0.289939-308    0.000000D+00    0.421447D+00
   0   296    0.000000D+00    0.806704-310    0.000000D+00    0.421447D+00
   0   297    0.000000D+00    0.223355-311    0.000000D+00    0.421447D+00
   0   298    0.000000D+00    0.615400-313    0.000000D+00    0.421447D+00
   0   299    0.000000D+00    0.168734-314    0.000000D+00    0.421447D+00
   0   300    0.000000D+00    0.460399-316    0.000000D+00    0.421447D+00
   0   301    0.000000D+00    0.125013-317    0.000000D+00    0.421447D+00
   0   302    0.000000D+00    0.337743-319    0.000000D+00    0.421447D+00
   0   303    0.000000D+00    0.904140-321    0.000000D+00    0.421447D+00
   0   304    0.000000D+00    0.197626-322    0.000000D+00    0.421447D+00
   0   305    0.000000D+00    0.000000D+00    0.000000D+00    0.421447D+00
   0   306    0.000000D+00    0.000000D+00    0.000000D+00    0.421447D+00
   0   307    0.000000D+00    0.000000D+00    0.000000D+00    0.421447D+00
   0   308    0.000000D+00    0.000000D+00    0.000000D+00    0.421447D+00
   0   309    0.000000D+00    0.000000D+00    0.000000D+00    0.421447D+00
   0   310    0.000000D+00    0.000000D+00    0.000000D+00    0.421447D+00
   0   311    0.000000D+00    0.000000D+00    0.000000D+00    0.421447D+00
   0   312    0.000000D+00    0.000000D+00    0.000000D+00    0.421447D+00
   0   313    0.000000D+00    0.000000D+00    0.000000D+00    0.421447D+00
   0   314    0.000000D+00    0.000000D+00    0.000000D+00    0.421447D+00
   0   315    0.000000D+00    0.000000D+00    0.000000D+00    0.421447D+00
   0   316    0.000000D+00    0.000000D+00    0.000000D+00    0.421447D+00
   0   317    0.000000D+00    0.000000D+00    0.000000D+00    0.421447D+00
   0   318    0.000000D+00    0.000000D+00    0.000000D+00    0.421447D+00
   0   319    0.000000D+00    0.000000D+00    0.000000D+00    0.421447D+00
   0   320    0.000000D+00    0.000000D+00    0.000000D+00    0.421447D+00
   0   321    0.000000D+00    0.000000D+00    0.000000D+00    0.421447D+00
   0   322    0.000000D+00    0.000000D+00    0.000000D+00    0.421447D+00
   0   323    0.000000D+00    0.000000D+00    0.000000D+00    0.421447D+00
   0   324    0.000000D+00    0.000000D+00    0.000000D+00    0.421447D+00
   0   325    0.000000D+00    0.000000D+00    0.000000D+00    0.421447D+00
   0   326    0.000000D+00    0.000000D+00    0.000000D+00    0.421447D+00
   0   327    0.000000D+00    0.000000D+00    0.000000D+00    0.421447D+00
   0   328    0.000000D+00    0.000000D+00    0.000000D+00    0.421447D+00
   0   329    0.000000D+00    0.000000D+00    0.000000D+00    0.421447D+00
   0   330    0.000000D+00    0.000000D+00    0.000000D+00    0.421447D+00
   0   331    0.000000D+00    0.000000D+00    0.000000D+00    0.421447D+00
   0   332    0.000000D+00    0.000000D+00    0.000000D+00    0.421447D+00
   0   333    0.000000D+00    0.000000D+00    0.000000D+00    0.421447D+00
   0   334    0.000000D+00    0.000000D+00    0.000000D+00    0.421447D+00
   0   335    0.000000D+00    0.000000D+00    0.000000D+00    0.421447D+00
   0   336    0.000000D+00    0.000000D+00    0.000000D+00    0.421447D+00
   0   337    0.000000D+00    0.000000D+00    0.000000D+00    0.421447D+00
   0   338    0.000000D+00    0.000000D+00    0.000000D+00    0.421447D+00
   0   339    0.000000D+00    0.000000D+00    0.000000D+00    0.421447D+00
   0   340    0.000000D+00    0.000000D+00    0.000000D+00    0.421447D+00
   0   341    0.000000D+00    0.000000D+00    0.000000D+00    0.421447D+00
   0   342    0.000000D+00    0.000000D+00    0.000000D+00    0.421447D+00
   0   343    0.000000D+00    0.000000D+00    0.000000D+00    0.421447D+00
   0   344    0.000000D+00    0.000000D+00    0.000000D+00    0.421447D+00
   0   345    0.000000D+00    0.000000D+00    0.000000D+00    0.421447D+00
   0   346    0.000000D+00    0.000000D+00    0.000000D+00    0.421447D+00
   0   347    0.000000D+00    0.000000D+00    0.000000D+00    0.421447D+00
   0   348    0.000000D+00    0.000000D+00    0.000000D+00    0.421447D+00
   0   349    0.000000D+00    0.000000D+00    0.000000D+00    0.421447D+00
   0   350    0.000000D+00    0.000000D+00    0.000000D+00    0.421447D+00
   0   351    0.000000D+00    0.000000D+00    0.000000D+00    0.421447D+00
   0   352    0.000000D+00    0.000000D+00    0.000000D+00    0.421447D+00
   0   353    0.000000D+00    0.000000D+00    0.000000D+00    0.421447D+00
   0   354    0.000000D+00    0.000000D+00    0.000000D+00    0.421447D+00
   0   355    0.000000D+00    0.000000D+00    0.000000D+00    0.421447D+00
   0   356    0.000000D+00    0.000000D+00    0.000000D+00    0.421447D+00
   0   357    0.000000D+00    0.000000D+00    0.000000D+00    0.421447D+00
   0   358    0.000000D+00    0.000000D+00    0.000000D+00    0.421447D+00
   0   359    0.000000D+00    0.000000D+00    0.000000D+00    0.421447D+00
   0   360    0.000000D+00    0.000000D+00    0.000000D+00    0.421447D+00
   0   361    0.000000D+00    0.000000D+00    0.000000D+00    0.421447D+00
   0   362    0.000000D+00    0.000000D+00    0.000000D+00    0.421447D+00
   0   363    0.000000D+00    0.000000D+00    0.000000D+00    0.421447D+00
   0   364    0.000000D+00    0.000000D+00    0.000000D+00    0.421447D+00
   0   365    0.000000D+00    0.000000D+00    0.000000D+00    0.421447D+00
   0   366    0.000000D+00    0.000000D+00    0.000000D+00    0.421447D+00
   0   367    0.000000D+00    0.000000D+00    0.000000D+00    0.421447D+00
   0   368    0.000000D+00    0.000000D+00    0.000000D+00    0.421447D+00
   0   369    0.000000D+00    0.000000D+00    0.000000D+00    0.421447D+00
   0   370    0.000000D+00    0.000000D+00    0.000000D+00    0.421447D+00
   0   371    0.000000D+00    0.000000D+00    0.000000D+00    0.421447D+00
   0   372    0.000000D+00    0.000000D+00    0.000000D+00    0.421447D+00
   0   373    0.000000D+00    0.000000D+00    0.000000D+00    0.421447D+00
   0   374    0.000000D+00    0.000000D+00    0.000000D+00    0.421447D+00
   0   375    0.000000D+00    0.000000D+00    0.000000D+00    0.421447D+00
   0   376    0.000000D+00    0.000000D+00    0.000000D+00    0.421447D+00
   0   377    0.000000D+00    0.000000D+00    0.000000D+00    0.421447D+00
   0   378    0.000000D+00    0.000000D+00    0.000000D+00    0.421447D+00
   0   379    0.000000D+00    0.000000D+00    0.000000D+00    0.421447D+00
   0   380    0.000000D+00    0.000000D+00    0.000000D+00    0.421447D+00
   0   381    0.000000D+00    0.000000D+00    0.000000D+00    0.421447D+00
   0   382    0.000000D+00    0.000000D+00    0.000000D+00    0.421447D+00
   0   383    0.000000D+00    0.000000D+00    0.000000D+00    0.421447D+00
   0   384    0.000000D+00    0.000000D+00    0.000000D+00    0.421447D+00
   0   385    0.000000D+00    0.000000D+00    0.000000D+00    0.421447D+00
   0   386    0.000000D+00    0.000000D+00    0.000000D+00    0.421447D+00
   0   387    0.000000D+00    0.000000D+00    0.000000D+00    0.421447D+00
   0   388    0.000000D+00    0.000000D+00    0.000000D+00    0.421447D+00
   0   389    0.000000D+00    0.000000D+00    0.000000D+00    0.421447D+00
   0   390    0.000000D+00    0.000000D+00    0.000000D+00    0.421447D+00
   0   391    0.000000D+00    0.000000D+00    0.000000D+00    0.421447D+00
   0   392    0.000000D+00    0.000000D+00    0.000000D+00    0.421447D+00
   0   393    0.000000D+00    0.000000D+00    0.000000D+00    0.421447D+00
   0   394    0.000000D+00    0.000000D+00    0.000000D+00    0.421447D+00
   0   395    0.000000D+00    0.000000D+00    0.000000D+00    0.421447D+00
   0   396    0.000000D+00    0.000000D+00    0.000000D+00    0.421447D+00
   0   397    0.000000D+00    0.000000D+00    0.000000D+00    0.421447D+00