variables =  "IG"  "JG"  "PHI"  "Temp."  "Latent_heat"  "mm"
ZONE  I=  401  J=  101
   0     0    0.100000D+01    0.743242D+00    0.000000D+00    0.343607D+00
   0     1    0.100000D+01    0.743242D+00    0.000000D+00    0.343607D+00
   0     2    0.100000D+01    0.744377D+00    0.000000D+00    0.343177D+00
   0     3    0.100000D+01    0.746638D+00    0.000000D+00    0.342311D+00
   0     4    0.100000D+01    0.750003D+00    0.000000D+00    0.340996D+00
   0     5    0.100000D+01    0.754445D+00    0.000000D+00    0.339214D+00
   0     6    0.100000D+01    0.759924D+00    0.000000D+00    0.336937D+00
   0     7    0.100000D+01    0.766395D+00    0.000000D+00    0.334132D+00
   0     8    0.100000D+01    0.773803D+00    0.000000D+00    0.330755D+00
   0     9    0.100000D+01    0.782088D+00    0.000000D+00    0.326752D+00
   0    10    0.100000D+01    0.791187D+00    0.000000D+00    0.322056D+00
   0    11    0.100000D+01    0.801032D+00    0.000000D+00    0.316585D+00
   0    12    0.100000D+01    0.811551D+00    0.000000D+00    0.310241D+00
   0    13    0.100000D+01    0.822674D+00    0.159872D-09    0.302903D+00
   0    14    0.100000D+01    0.834330D+00   -0.106581D-09    0.294425D+00
   0    15    0.100000D+01    0.846452D+00   -0.110179D-07    0.284629D+00
   0    16    0.100000D+01    0.858976D+00    0.657208D-07    0.273300D+00
   0    17    0.100000D+01    0.871844D+00   -0.100819D-05    0.260177D+00
   0    18    0.100000D+01    0.885004D+00   -0.512896D-06    0.244950D+00
   0    19    0.100000D+01    0.898420D+00   -0.900753D-05    0.227245D+00
   0    20    0.999999D+00    0.912069D+00    0.174179D-03    0.206624D+00
   0    21    0.999992D+00    0.925961D+00   -0.585644D-03    0.182574D+00
   0    22    0.999939D+00    0.940159D+00   -0.105833D-01    0.154475D+00
   0    23    0.999547D+00    0.954823D+00    0.213568D+00    0.121556D+00
   0    24    0.996740D+00    0.970266D+00    0.923928D+00    0.827754D-01
   0    25    0.977804D+00    0.986818D+00    0.112162D+02    0.376355D-01
   0    26    0.863686D+00    0.100455D+01    0.635786D+02   -0.115677D-01
   0    27    0.364244D+00    0.101967D+01   -0.236414D+02   -0.531262D-01
   0    28    0.843977D-01    0.102209D+01    0.243925D+02   -0.633468D-01
   0    29    0.241387D-01    0.101927D+01   -0.106764D+02   -0.548297D-01
   0    30    0.109772D-01    0.101627D+01    0.257560D+01   -0.460790D-01
   0    31    0.867803D-02    0.101314D+01   -0.386129D+00   -0.371483D-01
   0    32    0.885180D-02    0.101123D+01   -0.229111D+01   -0.316692D-01
   0    33    0.943509D-02    0.101046D+01   -0.481377D+01   -0.297520D-01
   0    34    0.995134D-02    0.100888D+01    0.149798D+01   -0.254121D-01
   0    35    0.102678D-01    0.100654D+01    0.398483D+01   -0.186109D-01
   0    36    0.107744D-01    0.100661D+01   -0.545722D+01   -0.185408D-01
   0    37    0.109993D-01    0.100660D+01    0.414283D+01   -0.185083D-01
   0    38    0.111550D-01    0.100571D+01   -0.126855D+01   -0.162612D-01
   0    39    0.113631D-01    0.100436D+01   -0.219964D+01   -0.122686D-01
   0    40    0.116931D-01    0.100205D+01    0.360529D+01   -0.575699D-02
   0    41    0.118700D-01    0.100248D+01   -0.644321D+01   -0.667879D-02
   0    42    0.120283D-01    0.100351D+01    0.783933D+01   -0.103500D-01
   0    43    0.124906D-01    0.100253D+01    0.462603D+01   -0.692986D-02
   0    44    0.125561D-01    0.100189D+01   -0.205792D+01   -0.584472D-02
   0    45    0.129150D-01    0.100028D+01   -0.593762D+01   -0.952019D-03
   0    46    0.128409D-01    0.100011D+01   -0.577165D+01   -0.695180D-03
   0    47    0.130805D-01    0.100050D+01    0.474836D+01   -0.867749D-03
   0    48    0.136699D-01    0.999868D+00   -0.750699D+00    0.322574D-03
   0    49    0.134981D-01    0.999442D+00   -0.917950D+00    0.124844D-02
   0    50    0.134960D-01    0.999174D+00   -0.621121D+01    0.295428D-02
   0    51    0.135978D-01    0.998768D+00   -0.478198D+01    0.303466D-02
   0    52    0.140113D-01    0.998284D+00   -0.736169D+01    0.474492D-02
   0    53    0.140270D-01    0.998360D+00   -0.562297D+00    0.474762D-02
   0    54    0.142993D-01    0.997467D+00    0.571318D+01    0.697169D-02
   0    55    0.145321D-01    0.997531D+00   -0.567360D+01    0.742385D-02
   0    56    0.148003D-01    0.996696D+00   -0.507397D+01    0.873909D-02
   0    57    0.145300D-01    0.997183D+00   -0.403581D+00    0.832096D-02
   0    58    0.150143D-01    0.995657D+00   -0.631981D+01    0.120968D-01
   0    59    0.149493D-01    0.995225D+00   -0.295988D+01    0.133876D-01
   0    60    0.153491D-01    0.994773D+00    0.456103D+01    0.156134D-01
   0    61    0.155724D-01    0.993987D+00   -0.547218D+01    0.169471D-01
   0    62    0.157527D-01    0.993571D+00    0.428046D+01    0.182484D-01
   0    63    0.165452D-01    0.992089D+00    0.150066D+01    0.223119D-01
   0    64    0.173926D-01    0.988519D+00   -0.601923D+01    0.324441D-01
   0    65    0.194402D-01    0.982510D+00    0.478707D+01    0.501293D-01
   0    66    0.212788D-01    0.972481D+00    0.103905D+02    0.770120D-01
   0    67    0.242897D-01    0.957266D+00    0.386967D+01    0.116475D+00
   0    68    0.277451D-01    0.932725D+00   -0.156262D+02    0.170374D+00
   0    69    0.275097D-01    0.893060D+00    0.812963D+01    0.234692D+00
   0    70    0.234629D-01    0.833188D+00   -0.102148D+02    0.295434D+00
   0    71    0.156346D-01    0.750904D+00    0.849617D+00    0.340873D+00
   0    72    0.824914D-02    0.649068D+00    0.596207D+01    0.370585D+00
   0    73    0.363182D-02    0.539220D+00    0.670287D+00    0.388853D+00
   0    74    0.145759D-02    0.432323D+00    0.618674D+00    0.400093D+00
   0    75    0.541086D-03    0.336263D+00    0.288559D+00    0.407190D+00
   0    76    0.197524D-03    0.254862D+00    0.449640D-01    0.411801D+00
   0    77    0.674398D-04    0.188881D+00    0.596162D-01    0.414871D+00
   0    78    0.227951D-04    0.137263D+00    0.196191D-01    0.416950D+00
   0    79    0.726381D-05    0.980482D-01    0.700523D-02    0.418373D+00
   0    80    0.237814D-05    0.689865D-01    0.241141D-02    0.419351D+00
   0    81    0.735247D-06    0.478998D-01    0.475203D-03    0.420024D+00
   0    82    0.221264D-06    0.328746D-01    0.527452D-04    0.420485D+00
   0    83    0.637773D-07    0.223342D-01    0.301598D-04    0.420801D+00
   0    84    0.188397D-07    0.150389D-01    0.210407D-04    0.421015D+00
   0    85    0.537972D-08    0.100481D-01    0.490334D-05    0.421160D+00
   0    86    0.156925D-08    0.666798D-02    0.489454D-06    0.421257D+00
   0    87    0.436481D-09    0.439869D-02    0.110943D-06    0.421322D+00
   0    88    0.134403D-09    0.288666D-02    0.131549D-06    0.421365D+00
   0    89    0.420929D-10    0.188580D-02    0.177062D-07    0.421394D+00
   0    90    0.126239D-10    0.122707D-02    0.143525D-07    0.421412D+00
   0    91    0.374110D-11    0.795665D-03    0.229198D-08    0.421424D+00
   0    92    0.115057D-11    0.514364D-03    0.122795D-08    0.421432D+00
   0    93    0.338609D-12    0.331629D-03    0.421295D-09    0.421438D+00
   0    94    0.966626D-13    0.213314D-03    0.266255D-10    0.421441D+00
   0    95    0.282821D-13    0.136930D-03    0.129925D-10    0.421443D+00
   0    96    0.796806D-14    0.877407D-04    0.650694D-11    0.421445D+00
   0    97    0.218776D-14    0.561334D-04    0.167197D-11    0.421445D+00
   0    98    0.625266D-15    0.358629D-04    0.693827D-12    0.421446D+00
   0    99    0.166390D-15    0.228848D-04    0.156188D-12    0.421446D+00
   0   100    0.460557D-16    0.145879D-04    0.372721D-13    0.421447D+00
   0   101    0.125346D-16    0.929057D-05    0.656807D-14    0.421447D+00
   0   102    0.334449D-17    0.591210D-05    0.110331D-14    0.421447D+00
   0   103    0.917960D-18    0.375956D-05    0.826654D-15    0.421447D+00
   0   104    0.232526D-18    0.238926D-05    0.221103D-15    0.421447D+00
   0   105    0.603417D-19    0.151758D-05    0.764347D-16    0.421447D+00
   0   106    0.155300D-19    0.963447D-06    0.687802D-17    0.421447D+00
   0   107    0.400175D-20    0.611381D-06    0.157436D-17    0.421447D+00
   0   108    0.999647D-21    0.387809D-06    0.127998D-17    0.421447D+00
   0   109    0.254645D-21    0.245899D-06    0.137943D-18    0.421447D+00
   0   110    0.654841D-22    0.155859D-06    0.656401D-19    0.421447D+00
   0   111    0.163847D-22    0.987515D-07    0.567749D-20    0.421447D+00
   0   112    0.411346D-23    0.625445D-07    0.137600D-20    0.421447D+00
   0   113    0.102533D-23    0.395967D-07    0.600298D-21    0.421447D+00
   0   114    0.261733D-24    0.250578D-07    0.349942D-21    0.421447D+00
   0   115    0.665675D-25    0.158498D-07    0.867815D-22    0.421447D+00
   0   116    0.159977D-25    0.100203D-07    0.695604D-23    0.421447D+00
   0   117    0.397444D-26    0.633138D-08    0.401170D-23    0.421447D+00
   0   118    0.949886D-27    0.399804D-08    0.447393D-24    0.421447D+00
   0   119    0.244336D-27    0.252292D-08    0.197829D-24    0.421447D+00
   0   120    0.600462D-28    0.159087D-08    0.268975D-25    0.421447D+00
   0   121    0.146808D-28    0.100234D-08    0.867278D-26    0.421447D+00
   0   122    0.360097D-29    0.630978D-09    0.128408D-26    0.421447D+00
   0   123    0.877131D-30    0.396822D-09    0.643246D-27    0.421447D+00
   0   124    0.210332D-30    0.249304D-09    0.103889D-27    0.421447D+00
   0   125    0.505284D-31    0.156452D-09    0.233345D-28    0.421447D+00
   0   126    0.124851D-31    0.980659D-10    0.105848D-28    0.421447D+00
   0   127    0.298742D-32    0.613913D-10    0.241281D-29    0.421447D+00
   0   128    0.706004D-33    0.383808D-10    0.653276D-30    0.421447D+00
   0   129    0.167894D-33    0.239611D-10    0.654516D-31    0.421447D+00
   0   130    0.401357D-34    0.149367D-10    0.343679D-31    0.421447D+00
   0   131    0.963259D-35    0.929667D-11    0.112780D-31    0.421447D+00
   0   132    0.231355D-35    0.577687D-11    0.838681D-33    0.421447D+00
   0   133    0.563978D-36    0.358362D-11    0.367314D-33    0.421447D+00
   0   134    0.138552D-36    0.221915D-11    0.157536D-33    0.421447D+00
   0   135    0.330755D-37    0.137170D-11    0.443986D-34    0.421447D+00
   0   136    0.785396D-38    0.846284D-12    0.980058D-35    0.421447D+00
   0   137    0.190545D-38    0.521111D-12    0.949896D-36    0.421447D+00
   0   138    0.454912D-39    0.320242D-12    0.251360D-36    0.421447D+00
   0   139    0.107105D-39    0.196398D-12    0.132705D-36    0.421447D+00
   0   140    0.257390D-40    0.120195D-12    0.339064D-37    0.421447D+00
   0   141    0.637110D-41    0.734016D-13    0.399815D-38    0.421447D+00
   0   142    0.151334D-41    0.447275D-13    0.100438D-38    0.421447D+00
   0   143    0.351182D-42    0.271941D-13    0.130583D-39    0.421447D+00
   0   144    0.884469D-43    0.164965D-13    0.484260D-40    0.421447D+00
   0   145    0.206858D-43    0.998401D-14    0.142812D-40    0.421447D+00
   0   146    0.478414D-44    0.602840D-14    0.213615D-41    0.421447D+00
   0   147    0.115774D-44    0.363136D-14    0.105003D-41    0.421447D+00
   0   148    0.277149D-45    0.218218D-14    0.232165D-42    0.421447D+00
   0   149    0.685005D-46    0.130814D-14    0.484954D-43    0.421447D+00
   0   150    0.162562D-46    0.782260D-15    0.990733D-44    0.421447D+00
   0   151    0.388259D-47    0.466624D-15    0.509290D-44    0.421447D+00
   0   152    0.940635D-48    0.277647D-15    0.511609D-45    0.421447D+00
   0   153    0.218464D-48    0.164785D-15    0.279331D-45    0.421447D+00
   0   154    0.521615D-49    0.975514D-16    0.436530D-46    0.421447D+00
   0   155    0.125226D-49    0.576013D-16    0.629038D-47    0.421447D+00
   0   156    0.296038D-50    0.339239D-16    0.163828D-47    0.421447D+00
   0   157    0.723912D-51    0.199272D-16    0.775129D-48    0.421447D+00
   0   158    0.170201D-51    0.116747D-16    0.933043D-49    0.421447D+00
   0   159    0.389904D-52    0.682185D-17    0.224227D-49    0.421447D+00
   0   160    0.914777D-53    0.397562D-17    0.120243D-49    0.421447D+00
   0   161    0.215713D-53    0.231074D-17    0.249934D-50    0.421447D+00
   0   162    0.515723D-54    0.133948D-17    0.635118D-51    0.421447D+00
   0   163    0.123634D-54    0.774378D-18    0.867369D-52    0.421447D+00
   0   164    0.299558D-55    0.446477D-18    0.995820D-53    0.421447D+00
   0   165    0.714664D-56    0.256726D-18    0.191066D-53    0.421447D+00
   0   166    0.170027D-56    0.147219D-18    0.112161D-53    0.421447D+00
   0   167    0.403227D-57    0.841925D-19    0.472796D-54    0.421447D+00
   0   168    0.933555D-58    0.480174D-19    0.339231D-55    0.421447D+00
   0   169    0.221662D-58    0.273109D-19    0.213803D-55    0.421447D+00
   0   170    0.524015D-59    0.154911D-19    0.241340D-56    0.421447D+00
   0   171    0.124755D-59    0.876267D-20    0.985878D-57    0.421447D+00
   0   172    0.291900D-60    0.494305D-20    0.115143D-57    0.421447D+00
   0   173    0.688157D-61    0.278072D-20    0.465903D-58    0.421447D+00
   0   174    0.164556D-61    0.155998D-20    0.601298D-59    0.421447D+00
   0   175    0.384757D-62    0.872735D-21    0.481032D-59    0.421447D+00
   0   176    0.926813D-63    0.486904D-21    0.466167D-60    0.421447D+00
   0   177    0.222746D-63    0.270896D-21    0.181509D-60    0.421447D+00
   0   178    0.501148D-64    0.150299D-21    0.545763D-61    0.421447D+00
   0   179    0.118226D-64    0.831583D-22    0.389958D-62    0.421447D+00
   0   180    0.283567D-65    0.458827D-22    0.121121D-62    0.421447D+00
   0   181    0.669069D-66    0.252456D-22    0.341735D-63    0.421447D+00
   0   182    0.159485D-66    0.138521D-22    0.155439D-63    0.421447D+00
   0   183    0.375022D-67    0.757948D-23    0.353371D-64    0.421447D+00
   0   184    0.897132D-68    0.413575D-23    0.392216D-65    0.421447D+00
   0   185    0.211177D-68    0.225041D-23    0.257209D-65    0.421447D+00
   0   186    0.499117D-69    0.122112D-23    0.503188D-66    0.421447D+00
   0   187    0.120529D-69    0.660770D-24    0.154439D-66    0.421447D+00
   0   188    0.274601D-70    0.356560D-24    0.273829D-67    0.421447D+00
   0   189    0.650134D-71    0.191870D-24    0.597463D-68    0.421447D+00
   0   190    0.149658D-71    0.102961D-24    0.133396D-68    0.421447D+00
   0   191    0.364461D-72    0.550975D-25    0.460392D-69    0.421447D+00
   0   192    0.824378D-73    0.294024D-25    0.788513D-70    0.421447D+00
   0   193    0.188657D-73    0.156468D-25    0.841148D-71    0.421447D+00
   0   194    0.436077D-74    0.830354D-26    0.322452D-71    0.421447D+00
   0   195    0.102009D-74    0.439434D-26    0.321532D-72    0.421447D+00
   0   196    0.244488D-75    0.231910D-26    0.108990D-72    0.421447D+00
   0   197    0.568514D-76    0.122050D-26    0.571311D-73    0.421447D+00
   0   198    0.131032D-76    0.640552D-27    0.170547D-73    0.421447D+00
   0   199    0.295334D-77    0.335248D-27    0.380231D-74    0.421447D+00
   0   200    0.690123D-78    0.174974D-27    0.537869D-75    0.421447D+00
   0   201    0.156767D-78    0.910711D-28    0.216439D-75    0.421447D+00
   0   202    0.358023D-79    0.472699D-28    0.319503D-76    0.421447D+00
   0   203    0.818046D-80    0.244674D-28    0.628087D-77    0.421447D+00
   0   204    0.194432D-80    0.126297D-28    0.261737D-77    0.421447D+00
   0   205    0.439596D-81    0.650125D-29    0.260203D-78    0.421447D+00
   0   206    0.997563D-82    0.333736D-29    0.506006D-79    0.421447D+00
   0   207    0.229258D-82    0.170849D-29    0.289041D-79    0.421447D+00
   0   208    0.502796D-83    0.872220D-30    0.793916D-80    0.421447D+00
   0   209    0.113211D-83    0.444062D-30    0.143060D-80    0.421447D+00
   0   210    0.255362D-84    0.225459D-30    0.137750D-81    0.421447D+00
   0   211    0.581639D-85    0.114156D-30    0.287444D-82    0.421447D+00
   0   212    0.129189D-85    0.576417D-31    0.191057D-82    0.421447D+00
   0   213    0.288318D-86    0.290258D-31    0.286599D-83    0.421447D+00
   0   214    0.636162D-87    0.145761D-31    0.727893D-84    0.421447D+00
   0   215    0.142851D-87    0.729981D-32    0.750184D-85    0.421447D+00
   0   216    0.324431D-88    0.364580D-32    0.349042D-85    0.421447D+00
   0   217    0.716820D-89    0.181589D-32    0.366966D-86    0.421447D+00
   0   218    0.155730D-89    0.901983D-33    0.154498D-86    0.421447D+00
   0   219    0.345863D-90    0.446812D-33    0.558666D-87    0.421447D+00
   0   220    0.757719D-91    0.220733D-33    0.604881D-88    0.421447D+00
   0   221    0.164019D-91    0.108750D-33    0.140037D-88    0.421447D+00
   0   222    0.366921D-92    0.534333D-34    0.299822D-89    0.421447D+00
   0   223    0.792396D-93    0.261827D-34    0.664430D-90    0.421447D+00
   0   224    0.168763D-93    0.127950D-34    0.980194D-91    0.421447D+00
   0   225    0.370792D-94    0.623575D-35    0.568837D-91    0.421447D+00
   0   226    0.798783D-95    0.303083D-35    0.123044D-91    0.421447D+00
   0   227    0.171666D-95    0.146914D-35    0.947931D-93    0.421447D+00
   0   228    0.373481D-96    0.710214D-36    0.387877D-93    0.421447D+00
   0   229    0.800618D-97    0.342410D-36    0.937213D-94    0.421447D+00
   0   230    0.170213D-97    0.164639D-36    0.814370D-95    0.421447D+00
   0   231    0.366076D-98    0.789498D-37    0.557348D-95    0.421447D+00
   0   232    0.760269D-99    0.377574D-37    0.129351D-95    0.421447D+00
   0   233    0.160071D-99    0.180089D-37    0.916905D-97    0.421447D+00
   0   234    0.352184-100    0.856661D-38    0.527769D-97    0.421447D+00
   0   235    0.728533-101    0.406413D-38    0.872425D-98    0.421447D+00
   0   236    0.152157-101    0.192294D-38    0.995868D-99    0.421447D+00
   0   237    0.316454-102    0.907407D-39    0.296414D-99    0.421447D+00
   0   238    0.640373-103    0.427052D-39    0.447576-100    0.421447D+00
   0   239    0.131934-103    0.200448D-39    0.111355-100    0.421447D+00
   0   240    0.273741-104    0.938355D-40    0.190343-101    0.421447D+00
   0   241    0.583898-105    0.438105D-40    0.563237-102    0.421447D+00
   0   242    0.119384-105    0.204003D-40    0.822802-103    0.421447D+00
   0   243    0.241442-106    0.947423D-41    0.351821-103    0.421447D+00
   0   244    0.482537-107    0.438835D-41    0.524314-104    0.421447D+00
   0   245    0.987418-108    0.202726D-41    0.614189-105    0.421447D+00
   0   246    0.200809-108    0.934052D-42    0.141473-105    0.421447D+00
   0   247    0.407934-109    0.429227D-42    0.566459-106    0.421447D+00
   0   248    0.818424-110    0.196725D-42    0.136267-106    0.421447D+00
   0   249    0.165286-110    0.899265D-43    0.202893-107    0.421447D+00
   0   250    0.336126-111    0.409993D-43    0.533287-108    0.421447D+00
   0   251    0.648986-112    0.186434D-43    0.104072-108    0.421447D+00
   0   252    0.128448-112    0.845541D-44    0.181553-109    0.421447D+00
   0   253    0.261778-113    0.382480D-44    0.398444-110    0.421447D+00
   0   254    0.525601-114    0.172563D-44    0.474488-111    0.421447D+00
   0   255    0.100596-114    0.776519D-45    0.102543-111    0.421447D+00
   0   256    0.196506-115    0.348518D-45    0.206331-112    0.421447D+00
   0   257    0.379779-116    0.156015D-45    0.552972-113    0.421447D+00
   0   258    0.734464-117    0.696594D-46    0.609576-114    0.421447D+00
   0   259    0.143020-117    0.310217D-46    0.166018-114    0.421447D+00
   0   260    0.279376-118    0.137792D-46    0.356862-115    0.421447D+00
   0   261    0.550463-119    0.610463D-47    0.398952-116    0.421447D+00
   0   262    0.105415-119    0.269756D-47    0.151370-116    0.421447D+00
   0   263    0.202740-120    0.118895D-47    0.172659-117    0.421447D+00
   0   264    0.377653-121    0.522676D-48    0.492764-118    0.421447D+00
   0   265    0.724966-122    0.229184D-48    0.110896-118    0.421447D+00
   0   266    0.137386-122    0.100235D-48    0.120634-119    0.421447D+00
   0   267    0.270416-123    0.437259D-49    0.437834-120    0.421447D+00
   0   268    0.520074-124    0.190259D-49    0.372212-121    0.421447D+00
   0   269    0.962270-125    0.825731D-50    0.110311-121    0.421447D+00
   0   270    0.178936-125    0.357455D-50    0.216518-122    0.421447D+00
   0   271    0.337708-126    0.154346D-50    0.434082-123    0.421447D+00
   0   272    0.635978-127    0.664755D-51    0.119158-123    0.421447D+00
   0   273    0.116880-127    0.285576D-51    0.194458-124    0.421447D+00
   0   274    0.217961-128    0.122371D-51    0.186819-125    0.421447D+00
   0   275    0.414916-129    0.523033D-52    0.559746-126    0.421447D+00
   0   276    0.730896-130    0.222987D-52    0.139121-126    0.421447D+00
   0   277    0.136907-130    0.948268D-53    0.269348-127    0.421447D+00
   0   278    0.256514-131    0.402239D-53    0.405901-128    0.421447D+00
   0   279    0.465665-132    0.170192D-53    0.726887-129    0.421447D+00
   0   280    0.862129-133    0.718290D-54    0.983972-130    0.421447D+00
   0   281    0.155105-133    0.302390D-54    0.275625-130    0.421447D+00
   0   282    0.275532-134    0.126982D-54    0.299514-131    0.421447D+00
   0   283    0.512576-135    0.531894D-55    0.869754-132    0.421447D+00
   0   284    0.931331-136    0.222239D-55    0.941574-133    0.421447D+00
   0   285    0.162375-136    0.926249D-56    0.209672-133    0.421447D+00
   0   286    0.287895-137    0.385079D-56    0.271093-134    0.421447D+00
   0   287    0.509140-138    0.159693D-56    0.731557-135    0.421447D+00
   0   288    0.902198-139    0.660604D-57    0.126741-135    0.421447D+00
   0   289    0.162527-139    0.272593D-57    0.163974-136    0.421447D+00
   0   290    0.285375-140    0.112204D-57    0.436332-137    0.421447D+00
   0   291    0.508185-141    0.460704D-58    0.904732-138    0.421447D+00
   0   292    0.899844-142    0.188695D-58    0.127023-138    0.421447D+00
   0   293    0.157097-142    0.770947D-59    0.279384-139    0.421447D+00
   0   294    0.269954-143    0.314206D-59    0.431991-140    0.421447D+00
   0   295    0.461920-144    0.127742D-59    0.761595-141    0.421447D+00
   0   296    0.803462-145    0.518060D-60    0.166759-141    0.421447D+00
   0   297    0.135233-145    0.209584D-60    0.257102-142    0.421447D+00
   0   298    0.227775-146    0.845805D-61    0.381357-143    0.421447D+00
   0   299    0.394095-147    0.340499D-61    0.528080-144    0.421447D+00
   0   300    0.677618-148    0.136741D-61    0.125713-144    0.421447D+00
   0   301    0.115179-148    0.547793D-62    0.154979-145    0.421447D+00
   0   302    0.195890-149    0.218914D-62    0.210966-146    0.421447D+00
   0   303    0.326567-150    0.872714D-63    0.553421-147    0.421447D+00
   0   304    0.554437-151    0.347066D-63    0.102500-147    0.421447D+00
   0   305    0.928228-152    0.137688D-63    0.134289-148    0.421447D+00
   0   306    0.154482-152    0.544910D-64    0.319185-149    0.421447D+00
   0   307    0.252829-153    0.215130D-64    0.467731-150    0.421447D+00
   0   308    0.421403-154    0.847275D-65    0.617851-151    0.421447D+00
   0   309    0.701421-155    0.332888D-65    0.129043-151    0.421447D+00
   0   310    0.119735-155    0.130474D-65    0.157271-152    0.421447D+00
   0   311    0.203772-156    0.510153D-66    0.286128-153    0.421447D+00
   0   312    0.330049-157    0.198990D-66    0.575877-154    0.421447D+00
   0   313    0.540096-158    0.774320D-67    0.114331-154    0.421447D+00
   0   314    0.861918-159    0.300584D-67    0.179583-155    0.421447D+00
   0   315    0.140437-159    0.116405D-67    0.244367-156    0.421447D+00
   0   316    0.228150-160    0.449712D-68    0.307115-157    0.421447D+00
   0   317    0.368867-161    0.173325D-68    0.737054-158    0.421447D+00
   0   318    0.586628-162    0.666427D-69    0.745780-159    0.421447D+00
   0   319    0.947589-163    0.255628D-69    0.144907-159    0.421447D+00
   0   320    0.153429-163    0.978206D-70    0.338385-160    0.421447D+00
   0   321    0.246742-164    0.373440D-70    0.409696-161    0.421447D+00
   0   322    0.395193-165    0.142227D-70    0.762988-162    0.421447D+00
   0   323    0.629393-166    0.540397D-71    0.125061-162    0.421447D+00
   0   324    0.976515-167    0.204841D-71    0.216964-163    0.421447D+00
   0   325    0.157486-167    0.774633D-72    0.250826-164    0.421447D+00
   0   326    0.245870-168    0.292247D-72    0.486551-165    0.421447D+00
   0   327    0.383268-169    0.109997D-72    0.558941-166    0.421447D+00
   0   328    0.593319-170    0.413041D-73    0.894863-167    0.421447D+00
   0   329    0.934023-171    0.154733D-73    0.221356-167    0.421447D+00
   0   330    0.151015-171    0.578305D-74    0.275630-168    0.421447D+00
   0   331    0.229398-172    0.215632D-74    0.383296-169    0.421447D+00
   0   332    0.351258-173    0.802149D-75    0.795592-170    0.421447D+00
   0   333    0.537699-174    0.297703D-75    0.933101-171    0.421447D+00
   0   334    0.813350-175    0.110230D-75    0.124561-171    0.421447D+00
   0   335    0.123528-175    0.407196D-76    0.269615-172    0.421447D+00
   0   336    0.191217-176    0.150072D-76    0.458843-173    0.421447D+00
   0   337    0.295340-177    0.551809D-77    0.665671-174    0.421447D+00
   0   338    0.452182-178    0.202429D-77    0.788250-175    0.421447D+00
   0   339    0.674035-179    0.740884D-78    0.165743-175    0.421447D+00
   0   340    0.103635-179    0.270536D-78    0.168816-176    0.421447D+00
   0   341    0.159108-180    0.985597D-79    0.229660-177    0.421447D+00
   0   342    0.238199-181    0.358239D-79    0.573495-178    0.421447D+00
   0   343    0.361178-182    0.129912D-79    0.673828-179    0.421447D+00
   0   344    0.533675-183    0.470032D-80    0.108204-179    0.421447D+00
   0   345    0.780532-184    0.169672D-80    0.196300-180    0.421447D+00
   0   346    0.116580-184    0.611081D-81    0.277161-181    0.421447D+00
   0   347    0.171012-185    0.219581D-81    0.430582-182    0.421447D+00
   0   348    0.254234-186    0.787227D-82    0.412080-183    0.421447D+00
   0   349    0.370138-187    0.281589D-82    0.554866-184    0.421447D+00
   0   350    0.536058-188    0.100495D-82    0.132679-184    0.421447D+00
   0   351    0.797836-189    0.357836D-83    0.179856-185    0.421447D+00
   0   352    0.118266-189    0.127128D-83    0.270405-186    0.421447D+00
   0   353    0.170904-190    0.450622D-84    0.362105-187    0.421447D+00
   0   354    0.248302-191    0.159368D-84    0.494974-188    0.421447D+00
   0   355    0.358410-192    0.562356D-85    0.674515-189    0.421447D+00
   0   356    0.517576-193    0.197989D-85    0.108154-189    0.421447D+00
   0   357    0.760077-194    0.695494D-86    0.172753-190    0.421447D+00
   0   358    0.108715-194    0.243764D-86    0.178761-191    0.421447D+00
   0   359    0.158500-195    0.852453D-87    0.309379-192    0.421447D+00
   0   360    0.224923-196    0.297439D-87    0.514490-193    0.421447D+00
   0   361    0.326001-197    0.103551D-87    0.632273-194    0.421447D+00
   0   362    0.459271-198    0.359699D-88    0.973089-195    0.421447D+00
   0   363    0.644001-199    0.124668D-88    0.112477-195    0.421447D+00
   0   364    0.866191-200    0.431126D-89    0.212887-196    0.421447D+00
   0   365    0.122549-200    0.148760D-89    0.338870-197    0.421447D+00
   0   366    0.172749-201    0.512159D-90    0.343363-198    0.421447D+00
   0   367    0.240775-202    0.175938D-90    0.635428-199    0.421447D+00
   0   368    0.341956-203    0.603049D-91    0.818682-200    0.421447D+00
   0   369    0.476462-204    0.206246D-91    0.120548-200    0.421447D+00
   0   370    0.656529-205    0.703815D-92    0.143445-201    0.421447D+00
   0   371    0.915066-206    0.239649D-92    0.223368-202    0.421447D+00
   0   372    0.125795-206    0.814207D-93    0.270111-203    0.421447D+00
   0   373    0.177860-207    0.276020D-93    0.459185-204    0.421447D+00
   0   374    0.238456-208    0.933669D-94    0.703796-205    0.421447D+00
   0   375    0.326290-209    0.315133D-94    0.920754-206    0.421447D+00
   0   376    0.444491-210    0.106131D-94    0.114388-206    0.421447D+00
   0   377    0.608637-211    0.356653D-95    0.146331-207    0.421447D+00
   0   378    0.843778-212    0.119591D-95    0.194589-208    0.421447D+00
   0   379    0.114870-212    0.400136D-96    0.303760-209    0.421447D+00
   0   380    0.150449-213    0.133589D-96    0.306133-210    0.421447D+00
   0   381    0.199400-214    0.445031D-97    0.591577-211    0.421447D+00
   0   382    0.270507-215    0.147934D-97    0.492065-212    0.421447D+00
   0   383    0.371548-216    0.490689D-98    0.816067-213    0.421447D+00
   0   384    0.514910-217    0.162407D-98    0.940472-214    0.421447D+00
   0   385    0.688860-218    0.536373D-99    0.135880-214    0.421447D+00
   0   386    0.923170-219    0.176763D-99    0.203727-215    0.421447D+00
   0   387    0.121182-219    0.581275-100    0.362765-216    0.421447D+00
   0   388    0.159666-220    0.190739-100    0.465331-217    0.421447D+00
   0   389    0.209240-221    0.624544-101    0.638145-218    0.421447D+00
   0   390    0.274043-222    0.204060-101    0.737466-219    0.421447D+00
   0   391    0.364316-223    0.665307-102    0.791790-220    0.421447D+00
   0   392    0.477508-224    0.216451-102    0.125178-220    0.421447D+00
   0   393    0.606753-225    0.702700-103    0.152034-221    0.421447D+00
   0   394    0.801948-226    0.227643-103    0.180443-222    0.421447D+00
   0   395    0.103987-226    0.735889-104    0.294043-223    0.421447D+00
   0   396    0.137524-227    0.237361-104    0.259756-224    0.421447D+00
   0   397    0.177694-228    0.763331-105    0.362184-225    0.421447D+00