variables =  "IG"  "JG"  "PHI"  "Temp."  "Latent_heat"  "mm"
ZONE  I=  401  J=  101
   0     0    0.100000D+01    0.791488D+00    0.000000D+00    0.321895D+00
   0     1    0.100000D+01    0.791488D+00    0.000000D+00    0.321895D+00
   0     2    0.100000D+01    0.792240D+00    0.000000D+00    0.321491D+00
   0     3    0.100000D+01    0.793740D+00    0.000000D+00    0.320678D+00
   0     4    0.100000D+01    0.795978D+00    0.000000D+00    0.319447D+00
   0     5    0.100000D+01    0.798941D+00    0.000000D+00    0.317783D+00
   0     6    0.100000D+01    0.802609D+00    0.000000D+00    0.315668D+00
   0     7    0.100000D+01    0.806961D+00    0.000000D+00    0.313076D+00
   0     8    0.100000D+01    0.811972D+00    0.000000D+00    0.309976D+00
   0     9    0.100000D+01    0.817611D+00    0.000000D+00    0.306329D+00
   0    10    0.100000D+01    0.823846D+00    0.000000D+00    0.302089D+00
   0    11    0.100000D+01    0.830645D+00    0.000000D+00    0.297200D+00
   0    12    0.100000D+01    0.837970D+00    0.000000D+00    0.291596D+00
   0    13    0.100000D+01    0.845785D+00    0.000000D+00    0.285198D+00
   0    14    0.100000D+01    0.854051D+00    0.000000D+00    0.277914D+00
   0    15    0.100000D+01    0.862733D+00    0.399680D-10    0.269635D+00
   0    16    0.100000D+01    0.871793D+00    0.151879D-08    0.260234D+00
   0    17    0.100000D+01    0.881197D+00   -0.115907D-07    0.249561D+00
   0    18    0.100000D+01    0.890912D+00    0.810152D-07    0.237446D+00
   0    19    0.100000D+01    0.900910D+00    0.469624D-06    0.223692D+00
   0    20    0.100000D+01    0.911170D+00   -0.491592D-05    0.208073D+00
   0    21    0.100000D+01    0.921682D+00   -0.500847D-04    0.190336D+00
   0    22    0.999999D+00    0.932453D+00    0.490321D-04    0.170186D+00
   0    23    0.999990D+00    0.943528D+00   -0.529438D-02    0.147269D+00
   0    24    0.999927D+00    0.955010D+00    0.204287D-01    0.121112D+00
   0    25    0.999495D+00    0.967115D+00    0.150686D+00    0.910155D-01
   0    26    0.996478D+00    0.980222D+00    0.138665D+01    0.559855D-01
   0    27    0.976550D+00    0.995152D+00   -0.536884D+01    0.141403D-01
   0    28    0.859441D+00    0.101151D+01   -0.609523D+02   -0.325891D-01
   0    29    0.369124D+00    0.102537D+01    0.789351D+02   -0.721058D-01
   0    30    0.881273D-01    0.102537D+01   -0.194798D+02   -0.720081D-01
   0    31    0.250927D-01    0.102066D+01    0.827799D-01   -0.589313D-01
   0    32    0.114043D-01    0.101496D+01    0.543887D+01   -0.427329D-01
   0    33    0.921209D-02    0.101083D+01    0.374625D+01   -0.310620D-01
   0    34    0.958033D-02    0.100870D+01   -0.387311D+01   -0.245188D-01
   0    35    0.102107D-01    0.100803D+01    0.159061D+01   -0.226751D-01
   0    36    0.105291D-01    0.100529D+01    0.268508D+01   -0.151757D-01
   0    37    0.109851D-01    0.100515D+01    0.534311D+01   -0.151843D-01
   0    38    0.112742D-01    0.100491D+01    0.525769D+01   -0.142557D-01
   0    39    0.116174D-01    0.100417D+01    0.390092D+01   -0.123562D-01
   0    40    0.114681D-01    0.100315D+01    0.394012D+01   -0.924828D-02
   0    41    0.115718D-01    0.100282D+01   -0.201106D+01   -0.805238D-02
   0    42    0.115585D-01    0.100279D+01   -0.385527D+01   -0.841858D-02
   0    43    0.125136D-01    0.100214D+01   -0.644614D+01   -0.641774D-02
   0    44    0.124768D-01    0.100169D+01    0.348787D+01   -0.467394D-02
   0    45    0.124184D-01    0.100212D+01    0.260882D+00   -0.605121D-02
   0    46    0.126912D-01    0.100245D+01    0.244462D+01   -0.687934D-02
   0    47    0.129585D-01    0.100202D+01   -0.431786D+01   -0.544771D-02
   0    48    0.129694D-01    0.100061D+01   -0.200928D+01   -0.188457D-02
   0    49    0.131312D-01    0.999871D+00   -0.674418D+01    0.162931D-03
   0    50    0.132421D-01    0.999242D+00    0.182061D+01    0.234691D-02
   0    51    0.135703D-01    0.999568D+00    0.547690D+01    0.180461D-02
   0    52    0.132795D-01    0.999298D+00    0.755571D+01    0.204489D-02
   0    53    0.138694D-01    0.999385D+00    0.569125D+01    0.168118D-02
   0    54    0.137285D-01    0.998525D+00   -0.147232D+01    0.472568D-02
   0    55    0.141607D-01    0.998140D+00   -0.531336D+01    0.477729D-02
   0    56    0.138730D-01    0.998125D+00    0.475306D+01    0.493691D-02
   0    57    0.140492D-01    0.999208D+00    0.387582D+01    0.220136D-02
   0    58    0.140944D-01    0.997905D+00   -0.534722D+01    0.553544D-02
   0    59    0.140923D-01    0.997818D+00   -0.622629D+01    0.653752D-02
   0    60    0.139403D-01    0.997541D+00   -0.512626D+01    0.691246D-02
   0    61    0.140479D-01    0.997906D+00   -0.550431D+01    0.605792D-02
   0    62    0.142382D-01    0.999096D+00    0.825038D+01    0.292184D-02
   0    63    0.142054D-01    0.998503D+00    0.260406D+01    0.469683D-02
   0    64    0.141848D-01    0.998301D+00    0.320533D+00    0.440211D-02
   0    65    0.141341D-01    0.999015D+00    0.633696D+01    0.315989D-02
   0    66    0.145362D-01    0.998401D+00   -0.479677D+01    0.514920D-02
   0    67    0.140585D-01    0.997600D+00    0.762909D-01    0.663344D-02
   0    68    0.140861D-01    0.998348D+00   -0.730608D+01    0.426119D-02
   0    69    0.144004D-01    0.997139D+00   -0.774678D+01    0.758476D-02
   0    70    0.140448D-01    0.997922D+00   -0.281844D+01    0.586875D-02
   0    71    0.144647D-01    0.998032D+00    0.116060D+00    0.636566D-02
   0    72    0.144767D-01    0.997304D+00   -0.752886D+01    0.753667D-02
   0    73    0.145039D-01    0.997239D+00    0.481849D+01    0.827396D-02
   0    74    0.144494D-01    0.997164D+00    0.692935D+01    0.785349D-02
   0    75    0.143247D-01    0.996836D+00   -0.786879D+00    0.908053D-02
   0    76    0.141669D-01    0.997150D+00   -0.145393D+01    0.897179D-02
   0    77    0.142314D-01    0.997589D+00    0.916481D+01    0.707802D-02
   0    78    0.143170D-01    0.996827D+00    0.722056D+01    0.892447D-02
   0    79    0.138527D-01    0.998146D+00    0.341135D+00    0.548866D-02
   0    80    0.137288D-01    0.999129D+00    0.115492D+01    0.221516D-02
   0    81    0.138359D-01    0.998727D+00    0.234524D+01    0.380755D-02
   0    82    0.137392D-01    0.998575D+00    0.816660D+01    0.407321D-02
   0    83    0.136155D-01    0.999152D+00   -0.775748D+01    0.250391D-02
   0    84    0.135252D-01    0.999181D+00    0.421504D+01    0.234230D-02
   0    85    0.140520D-01    0.998354D+00   -0.330913D+01    0.500372D-02
   0    86    0.149841D-01    0.996249D+00   -0.855514D+01    0.103261D-01
   0    87    0.159394D-01    0.993689D+00    0.587428D+00    0.178739D-01
   0    88    0.163311D-01    0.991207D+00   -0.690656D+01    0.248944D-01
   0    89    0.175120D-01    0.988812D+00   -0.773167D+01    0.317631D-01
   0    90    0.182685D-01    0.984131D+00   -0.601411D+01    0.458812D-01
   0    91    0.207032D-01    0.976732D+00   -0.775082D+01    0.654395D-01
   0    92    0.238380D-01    0.963585D+00    0.945298D+01    0.100957D+00
   0    93    0.274831D-01    0.941407D+00   -0.198511D+01    0.152635D+00
   0    94    0.282224D-01    0.908152D+00   -0.494337D+01    0.213540D+00
   0    95    0.254485D-01    0.857103D+00   -0.536403D+01    0.275411D+00
   0    96    0.178226D-01    0.783144D+00    0.636091D+00    0.326528D+00
   0    97    0.104809D-01    0.686235D+00    0.125825D+01    0.361748D+00
   0    98    0.499209D-02    0.577948D+00    0.374132D+01    0.383430D+00
   0    99    0.208555D-02    0.468928D+00    0.204523D+01    0.396732D+00
   0   100    0.796309D-03    0.368428D+00    0.858419D+00    0.405048D+00
   0   101    0.291522D-03    0.281586D+00    0.582239D-01    0.410400D+00
   0   102    0.101456D-03    0.210173D+00    0.417122D-01    0.413936D+00
   0   103    0.341668D-04    0.153666D+00    0.185233D-01    0.416317D+00
   0   104    0.108522D-04    0.110339D+00    0.104948D-01    0.417940D+00
   0   105    0.337377D-05    0.779858D-01    0.167090D-02    0.419055D+00
   0   106    0.102633D-05    0.543603D-01    0.120505D-02    0.419821D+00
   0   107    0.306759D-06    0.374347D-01    0.652413D-04    0.420347D+00
   0   108    0.909749D-07    0.255065D-01    0.281781D-04    0.420706D+00
   0   109    0.267490D-07    0.172183D-01    0.251833D-04    0.420951D+00
   0   110    0.781397D-08    0.115295D-01    0.206822D-05    0.421117D+00
   0   111    0.225504D-08    0.766579D-02    0.611925D-06    0.421228D+00
   0   112    0.659788D-09    0.506562D-02    0.681494D-06    0.421303D+00
   0   113    0.187170D-09    0.332952D-02    0.675235D-07    0.421352D+00
   0   114    0.588068D-10    0.217826D-02    0.168550D-07    0.421385D+00
   0   115    0.181355D-10    0.141931D-02    0.361573D-08    0.421407D+00
   0   116    0.554859D-11    0.921532D-03    0.304767D-08    0.421421D+00
   0   117    0.165939D-11    0.596498D-03    0.190935D-08    0.421430D+00
   0   118    0.499666D-12    0.385072D-03    0.569550D-09    0.421436D+00
   0   119    0.143278D-12    0.248002D-03    0.153539D-09    0.421440D+00
   0   120    0.415600D-13    0.159395D-03    0.207978D-10    0.421443D+00
   0   121    0.118878D-13    0.102261D-03    0.920480D-11    0.421444D+00
   0   122    0.342628D-14    0.655027D-04    0.198723D-11    0.421445D+00
   0   123    0.936867D-15    0.418986D-04    0.858719D-12    0.421446D+00
   0   124    0.259047D-15    0.267672D-04    0.640067D-13    0.421446D+00
   0   125    0.710103D-16    0.170817D-04    0.597371D-13    0.421447D+00
   0   126    0.193404D-16    0.108902D-04    0.116747D-13    0.421447D+00
   0   127    0.497621D-17    0.693691D-05    0.644661D-14    0.421447D+00
   0   128    0.133595D-17    0.441530D-05    0.135543D-14    0.421447D+00
   0   129    0.349943D-18    0.280837D-05    0.249918D-15    0.421447D+00
   0   130    0.930547D-19    0.178517D-05    0.247164D-16    0.421447D+00
   0   131    0.234486D-19    0.113413D-05    0.302400D-16    0.421447D+00
   0   132    0.614116D-20    0.720163D-06    0.694563D-17    0.421447D+00
   0   133    0.158882D-20    0.457088D-06    0.532591D-18    0.421447D+00
   0   134    0.396375D-21    0.289996D-06    0.329828D-18    0.421447D+00
   0   135    0.103744D-21    0.183917D-06    0.106536D-18    0.421447D+00
   0   136    0.263059D-22    0.116602D-06    0.122125D-19    0.421447D+00
   0   137    0.655703D-23    0.739022D-07    0.956490D-20    0.421447D+00
   0   138    0.166862D-23    0.468261D-07    0.212796D-20    0.421447D+00
   0   139    0.419892D-24    0.296625D-07    0.470662D-21    0.421447D+00
   0   140    0.102845D-24    0.187857D-07    0.799681D-22    0.421447D+00
   0   141    0.266975D-25    0.118948D-07    0.234127D-22    0.421447D+00
   0   142    0.647058D-26    0.753013D-08    0.909665D-23    0.421447D+00
   0   143    0.160862D-26    0.476618D-08    0.694397D-24    0.421447D+00
   0   144    0.408198D-27    0.301626D-08    0.420639D-24    0.421447D+00
   0   145    0.967411D-28    0.190855D-08    0.801465D-25    0.421447D+00
   0   146    0.240999D-28    0.120747D-08    0.132153D-25    0.421447D+00
   0   147    0.585481D-29    0.763824D-09    0.633027D-26    0.421447D+00
   0   148    0.139052D-29    0.483122D-09    0.201130D-26    0.421447D+00
   0   149    0.343927D-30    0.305541D-09    0.475768D-27    0.421447D+00
   0   150    0.826410D-31    0.193212D-09    0.118253D-27    0.421447D+00
   0   151    0.200939D-31    0.122165D-09    0.235161D-28    0.421447D+00
   0   152    0.484673D-32    0.772344D-10    0.695205D-29    0.421447D+00
   0   153    0.119331D-32    0.488228D-10    0.115894D-29    0.421447D+00
   0   154    0.297471D-33    0.308589D-10    0.101551D-30    0.421447D+00
   0   155    0.696146D-34    0.195020D-10    0.384843D-31    0.421447D+00
   0   156    0.169068D-34    0.123229D-10    0.233199D-31    0.421447D+00
   0   157    0.406836D-35    0.778538D-11    0.125007D-32    0.421447D+00
   0   158    0.987405D-36    0.491777D-11    0.869775D-33    0.421447D+00
   0   159    0.236246D-36    0.310578D-11    0.258085D-33    0.421447D+00
   0   160    0.575029D-37    0.196100D-11    0.732576D-34    0.421447D+00
   0   161    0.134803D-37    0.123788D-11    0.176930D-34    0.421447D+00
   0   162    0.322588D-38    0.781201D-12    0.397666D-35    0.421447D+00
   0   163    0.765897D-39    0.492849D-12    0.770733D-36    0.421447D+00
   0   164    0.185263D-39    0.310828D-12    0.134482D-36    0.421447D+00
   0   165    0.455257D-40    0.195959D-12    0.307923D-37    0.421447D+00
   0   166    0.110795D-40    0.123491D-12    0.560393D-38    0.421447D+00
   0   167    0.253878D-41    0.777876D-13    0.127933D-38    0.421447D+00
   0   168    0.621850D-42    0.489751D-13    0.268863D-39    0.421447D+00
   0   169    0.150879D-42    0.308184D-13    0.578973D-40    0.421447D+00
   0   170    0.351524D-43    0.193820D-13    0.164878D-40    0.421447D+00
   0   171    0.839949D-44    0.121820D-13    0.932142D-41    0.421447D+00
   0   172    0.200243D-44    0.765159D-14    0.158127D-41    0.421447D+00
   0   173    0.471340D-45    0.480262D-14    0.152125D-42    0.421447D+00
   0   174    0.117190D-45    0.301216D-14    0.713756D-43    0.421447D+00
   0   175    0.271934D-46    0.188769D-14    0.314844D-43    0.421447D+00
   0   176    0.644275D-47    0.118200D-14    0.477994D-44    0.421447D+00
   0   177    0.151934D-47    0.739462D-15    0.939118D-45    0.421447D+00
   0   178    0.359848D-48    0.462175D-15    0.186843D-45    0.421447D+00
   0   179    0.879928D-49    0.288583D-15    0.594257D-46    0.421447D+00
   0   180    0.206187D-49    0.180006D-15    0.240936D-46    0.421447D+00
   0   181    0.492991D-50    0.112160D-15    0.311345D-47    0.421447D+00
   0   182    0.117297D-50    0.698078D-16    0.103456D-47    0.421447D+00
   0   183    0.279459D-51    0.433976D-16    0.263845D-48    0.421447D+00
   0   184    0.664099D-52    0.269468D-16    0.697468D-49    0.421447D+00
   0   185    0.159030D-52    0.167112D-16    0.860062D-50    0.421447D+00
   0   186    0.369522D-53    0.103503D-16    0.163711D-50    0.421447D+00
   0   187    0.857263D-54    0.640218D-17    0.984823D-51    0.421447D+00
   0   188    0.202096D-54    0.395469D-17    0.255836D-51    0.421447D+00
   0   189    0.499786D-55    0.243946D-17    0.189707D-52    0.421447D+00
   0   190    0.115871D-55    0.150264D-17    0.138780D-52    0.421447D+00
   0   191    0.274434D-56    0.924237D-18    0.325502D-53    0.421447D+00
   0   192    0.638211D-57    0.567630D-18    0.778165D-54    0.421447D+00
   0   193    0.151947D-57    0.348086D-18    0.119346D-54    0.421447D+00
   0   194    0.352421D-58    0.213126D-18    0.433890D-55    0.421447D+00
   0   195    0.815329D-59    0.130287D-18    0.877992D-56    0.421447D+00
   0   196    0.189320D-59    0.795184D-19    0.206300D-56    0.421447D+00
   0   197    0.455803D-60    0.484538D-19    0.369925D-57    0.421447D+00
   0   198    0.110928D-60    0.294762D-19    0.126762D-57    0.421447D+00
   0   199    0.263807D-61    0.179013D-19    0.223657D-58    0.421447D+00
   0   200    0.624960D-62    0.108533D-19    0.362336D-59    0.421447D+00
   0   201    0.145780D-62    0.656891D-20    0.141828D-59    0.421447D+00
   0   202    0.343708D-63    0.396889D-20    0.480951D-60    0.421447D+00
   0   203    0.826796D-64    0.239376D-20    0.696301D-61    0.421447D+00
   0   204    0.192325D-64    0.144119D-20    0.757201D-62    0.421447D+00
   0   205    0.455897D-65    0.866133D-21    0.500297D-62    0.421447D+00
   0   206    0.107896D-65    0.519591D-21    0.137524D-62    0.421447D+00
   0   207    0.254496D-66    0.311133D-21    0.282247D-63    0.421447D+00
   0   208    0.611708D-67    0.185966D-21    0.259147D-64    0.421447D+00
   0   209    0.141469D-67    0.110947D-21    0.130395D-64    0.421447D+00
   0   210    0.332097D-68    0.660673D-22    0.418889D-65    0.421447D+00
   0   211    0.782346D-69    0.392684D-22    0.871479D-66    0.421447D+00
   0   212    0.182652D-69    0.232959D-22    0.121180D-66    0.421447D+00
   0   213    0.437056D-70    0.137940D-22    0.413740D-67    0.421447D+00
   0   214    0.103176D-70    0.815217D-23    0.150703D-67    0.421447D+00
   0   215    0.239571D-71    0.480863D-23    0.182894D-68    0.421447D+00
   0   216    0.574622D-72    0.283095D-23    0.299115D-69    0.421447D+00
   0   217    0.132469D-72    0.166341D-23    0.143598D-69    0.421447D+00
   0   218    0.305596D-73    0.975494D-24    0.443308D-70    0.421447D+00
   0   219    0.712776D-74    0.570953D-24    0.464173D-71    0.421447D+00
   0   220    0.167477D-74    0.333522D-24    0.194954D-71    0.421447D+00
   0   221    0.391093D-75    0.194444D-24    0.450150D-72    0.421447D+00
   0   222    0.928804D-76    0.113138D-24    0.462855D-73    0.421447D+00
   0   223    0.220158D-76    0.656992D-25    0.245604D-73    0.421447D+00
   0   224    0.527633D-77    0.380760D-25    0.380829D-74    0.421447D+00
   0   225    0.122856D-77    0.220231D-25    0.429797D-75    0.421447D+00
   0   226    0.282415D-78    0.127127D-25    0.983359D-76    0.421447D+00
   0   227    0.663166D-79    0.732368D-26    0.787658D-76    0.421447D+00
   0   228    0.160882D-79    0.421066D-26    0.212216D-76    0.421447D+00
   0   229    0.370668D-80    0.241602D-26    0.522297D-77    0.421447D+00
   0   230    0.865851D-81    0.138349D-26    0.739643D-78    0.421447D+00
   0   231    0.201075D-81    0.790634D-27    0.106082D-78    0.421447D+00
   0   232    0.475514D-82    0.450920D-27    0.255474D-79    0.421447D+00
   0   233    0.112229D-82    0.256652D-27    0.145994D-79    0.421447D+00
   0   234    0.267708D-83    0.145785D-27    0.113827D-80    0.421447D+00
   0   235    0.631208D-84    0.826416D-28    0.462726D-81    0.421447D+00
   0   236    0.148654D-84    0.467524D-28    0.685206D-82    0.421447D+00
   0   237    0.344767D-85    0.263954D-28    0.386902D-82    0.421447D+00
   0   238    0.806839D-86    0.148720D-28    0.966272D-83    0.421447D+00
   0   239    0.194098D-86    0.836229D-29    0.723639D-84    0.421447D+00
   0   240    0.463373D-87    0.469243D-29    0.442425D-84    0.421447D+00
   0   241    0.109956D-87    0.262775D-29    0.687463D-85    0.421447D+00
   0   242    0.255473D-88    0.146854D-29    0.345172D-85    0.421447D+00
   0   243    0.588854D-89    0.819034D-30    0.534885D-86    0.421447D+00
   0   244    0.138297D-89    0.455859D-30    0.204254D-86    0.421447D+00
   0   245    0.330269D-90    0.253205D-30    0.155099D-87    0.421447D+00
   0   246    0.788519D-91    0.140355D-30    0.895930D-88    0.421447D+00
   0   247    0.193325D-91    0.776417D-31    0.212502D-88    0.421447D+00
   0   248    0.455995D-92    0.428622D-31    0.209322D-89    0.421447D+00
   0   249    0.103779D-92    0.236138D-31    0.788965D-90    0.421447D+00
   0   250    0.247129D-93    0.129828D-31    0.126138D-90    0.421447D+00
   0   251    0.582250D-94    0.712333D-32    0.275952D-91    0.421447D+00
   0   252    0.134138D-94    0.390040D-32    0.140489D-91    0.421447D+00
   0   253    0.322417D-95    0.213131D-32    0.397321D-92    0.421447D+00
   0   254    0.766598D-96    0.116224D-32    0.914822D-93    0.421447D+00
   0   255    0.182525D-96    0.632496D-33    0.119270D-93    0.421447D+00
   0   256    0.435200D-97    0.343503D-33    0.478240D-94    0.421447D+00
   0   257    0.101273D-97    0.186172D-33    0.107579D-94    0.421447D+00
   0   258    0.239773D-98    0.100696D-33    0.220234D-95    0.421447D+00
   0   259    0.558365D-99    0.543527D-34    0.552576D-96    0.421447D+00
   0   260    0.132476D-99    0.292780D-34    0.151173D-96    0.421447D+00
   0   261    0.313637-100    0.157389D-34    0.786683D-98    0.421447D+00
   0   262    0.724516-101    0.844349D-35    0.488637D-98    0.421447D+00
   0   263    0.167174-101    0.452045D-35    0.177272D-98    0.421447D+00
   0   264    0.393341-102    0.241521D-35    0.439386D-99    0.421447D+00
   0   265    0.912854-103    0.128778D-35    0.121072D-99    0.421447D+00
   0   266    0.215075-103    0.685238D-36    0.247071-100    0.421447D+00
   0   267    0.503970-104    0.363878D-36    0.459989-101    0.421447D+00
   0   268    0.117892-104    0.192835D-36    0.436651-102    0.421447D+00
   0   269    0.275734-105    0.101984D-36    0.891263-103    0.421447D+00
   0   270    0.635280-106    0.538258D-37    0.780421-103    0.421447D+00
   0   271    0.146830-106    0.283509D-37    0.735416-104    0.421447D+00
   0   272    0.341695-107    0.149025D-37    0.134588-104    0.421447D+00
   0   273    0.785453-108    0.781750D-38    0.881219-105    0.421447D+00
   0   274    0.183051-108    0.409255D-38    0.111511-105    0.421447D+00
   0   275    0.429191-109    0.213815D-38    0.611499-106    0.421447D+00
   0   276    0.996055-110    0.111481D-38    0.144742-106    0.421447D+00
   0   277    0.241083-110    0.580074D-39    0.283771-107    0.421447D+00
   0   278    0.547504-111    0.301220D-39    0.513369-108    0.421447D+00
   0   279    0.126325-111    0.156101D-39    0.138713-108    0.421447D+00
   0   280    0.294693-112    0.807321D-40    0.427634-109    0.421447D+00
   0   281    0.676232-113    0.416686D-40    0.322067-110    0.421447D+00
   0   282    0.155931-113    0.214631D-40    0.158937-110    0.421447D+00
   0   283    0.357160-114    0.110331D-40    0.161455-111    0.421447D+00
   0   284    0.820779-115    0.566014D-41    0.105225-111    0.421447D+00
   0   285    0.191010-115    0.289788D-41    0.277402-112    0.421447D+00
   0   286    0.425880-116    0.148066D-41    0.433373-113    0.421447D+00
   0   287    0.950859-117    0.755017D-42    0.643834-114    0.421447D+00
   0   288    0.207587-117    0.384223D-42    0.948122-115    0.421447D+00
   0   289    0.474517-118    0.195135D-42    0.165853-115    0.421447D+00
   0   290    0.107997-118    0.989040D-43    0.149580-115    0.421447D+00
   0   291    0.244202-119    0.500288D-43    0.315769-116    0.421447D+00
   0   292    0.538117-120    0.252554D-43    0.613047-117    0.421447D+00
   0   293    0.120252-120    0.127238D-43    0.840248-118    0.421447D+00
   0   294    0.276382-121    0.639746D-44    0.199402-118    0.421447D+00
   0   295    0.646694-122    0.321018D-44    0.462477-119    0.421447D+00
   0   296    0.143438-122    0.160761D-44    0.784619-120    0.421447D+00
   0   297    0.316566-123    0.803460D-45    0.295873-120    0.421447D+00
   0   298    0.707967-124    0.400756D-45    0.462852-121    0.421447D+00
   0   299    0.158858-124    0.199493D-45    0.227454-121    0.421447D+00
   0   300    0.357856-125    0.991081D-46    0.525536-122    0.421447D+00
   0   301    0.773516-126    0.491388D-46    0.463559-123    0.421447D+00
   0   302    0.175173-126    0.243151D-46    0.844679-124    0.421447D+00
   0   303    0.377124-127    0.120077D-46    0.627048-124    0.421447D+00
   0   304    0.808410-128    0.591812D-47    0.418975-125    0.421447D+00
   0   305    0.176007-128    0.291101D-47    0.262037-125    0.421447D+00
   0   306    0.392075-129    0.142903D-47    0.254976-126    0.421447D+00
   0   307    0.858062-130    0.700127D-48    0.577505-127    0.421447D+00
   0   308    0.187103-130    0.342336D-48    0.176253-127    0.421447D+00
   0   309    0.411788-131    0.167058D-48    0.186886-128    0.421447D+00
   0   310    0.916836-132    0.813624D-49    0.857081-129    0.421447D+00
   0   311    0.197117-132    0.395477D-49    0.297853-129    0.421447D+00
   0   312    0.427316-133    0.191850D-49    0.333054-130    0.421447D+00
   0   313    0.920110-134    0.928849D-50    0.934599-131    0.421447D+00
   0   314    0.193037-134    0.448820D-50    0.237350-131    0.421447D+00
   0   315    0.415217-135    0.216443D-50    0.422408-132    0.421447D+00
   0   316    0.908807-136    0.104175D-50    0.402098-133    0.421447D+00
   0   317    0.194113-136    0.500409D-51    0.264016-133    0.421447D+00
   0   318    0.425066-137    0.239903D-51    0.294557-134    0.421447D+00
   0   319    0.894785-138    0.114788D-51    0.816800-135    0.421447D+00
   0   320    0.191221-138    0.548153D-52    0.268794-135    0.421447D+00
   0   321    0.414790-139    0.261251D-52    0.459719-136    0.421447D+00
   0   322    0.873876-140    0.124270D-52    0.549351-137    0.421447D+00
   0   323    0.183454-140    0.589961D-53    0.244485-137    0.421447D+00
   0   324    0.377926-141    0.279533D-53    0.431877-138    0.421447D+00
   0   325    0.796808-142    0.132189D-53    0.890874-139    0.421447D+00
   0   326    0.164710-142    0.623895D-54    0.267767-139    0.421447D+00
   0   327    0.339186-143    0.293888D-54    0.291464-140    0.421447D+00
   0   328    0.708694-144    0.138168D-54    0.634538-141    0.421447D+00
   0   329    0.146326-144    0.648317D-55    0.209389-141    0.421447D+00
   0   330    0.303215-145    0.303617D-55    0.403881-142    0.421447D+00
   0   331    0.624305-146    0.141912D-55    0.454654-143    0.421447D+00
   0   332    0.130103-146    0.662025D-56    0.169910-143    0.421447D+00
   0   333    0.273001-147    0.308238D-56    0.341201-144    0.421447D+00
   0   334    0.562193-148    0.143238D-56    0.549152-145    0.421447D+00
   0   335    0.114102-148    0.664344D-57    0.160339-145    0.421447D+00
   0   336    0.228188-149    0.307530D-57    0.211038-146    0.421447D+00
   0   337    0.466219-150    0.142084D-57    0.517238-147    0.421447D+00
   0   338    0.950957-151    0.655189D-58    0.113940-147    0.421447D+00
   0   339    0.194883-151    0.301544D-58    0.113371-148    0.421447D+00
   0   340    0.398703-152    0.138516D-58    0.520738-149    0.421447D+00
   0   341    0.818885-153    0.635063D-59    0.670621-150    0.421447D+00
   0   342    0.163901-153    0.290602D-59    0.231938-150    0.421447D+00
   0   343    0.320653-154    0.132724D-59    0.425105-151    0.421447D+00
   0   344    0.656206-155    0.605015D-60    0.433628-152    0.421447D+00
   0   345    0.130464-155    0.275267D-60    0.235229-152    0.421447D+00
   0   346    0.263136-156    0.125000D-60    0.351443-153    0.421447D+00
   0   347    0.512942-157    0.566550D-61    0.366744-154    0.421447D+00
   0   348    0.101816-157    0.256293D-61    0.847430-155    0.421447D+00
   0   349    0.204346-158    0.115720D-61    0.218708-155    0.421447D+00
   0   350    0.403934-159    0.521500D-62    0.391616-156    0.421447D+00
   0   351    0.777442-160    0.234571D-62    0.942964-157    0.421447D+00
   0   352    0.149489-160    0.105310D-62    0.124230-157    0.421447D+00
   0   353    0.293656-161    0.471887D-63    0.321432-158    0.421447D+00
   0   354    0.578701-162    0.211050D-63    0.641907-159    0.421447D+00
   0   355    0.114299-162    0.942127D-64    0.151842-159    0.421447D+00
   0   356    0.221421-163    0.419771D-64    0.178267-160    0.421447D+00
   0   357    0.425270-164    0.186678D-64    0.801980-161    0.421447D+00
   0   358    0.845398-165    0.828621D-65    0.762259-162    0.421447D+00
   0   359    0.163510-165    0.367112D-65    0.158288-162    0.421447D+00
   0   360    0.316001-166    0.162339D-65    0.255567-163    0.421447D+00
   0   361    0.618401-167    0.716525D-66    0.661842-164    0.421447D+00
   0   362    0.120025-167    0.315662D-66    0.971356-165    0.421447D+00
   0   363    0.233133-168    0.138802D-66    0.400116-165    0.421447D+00
   0   364    0.431399-169    0.609196D-67    0.813959-166    0.421447D+00
   0   365    0.839505-170    0.266872D-67    0.758849-167    0.421447D+00
   0   366    0.163039-170    0.116691D-67    0.289654-167    0.421447D+00
   0   367    0.313828-171    0.509281D-68    0.300966-168    0.421447D+00
   0   368    0.586372-172    0.221854D-68    0.112605-168    0.421447D+00
   0   369    0.109462-172    0.964642D-69    0.140730-169    0.421447D+00
   0   370    0.212289-173    0.418654D-69    0.372023-170    0.421447D+00
   0   371    0.391628-174    0.181357D-69    0.703522-171    0.421447D+00
   0   372    0.724270-175    0.784166D-70    0.129436-171    0.421447D+00
   0   373    0.138550-175    0.338433D-70    0.209021-172    0.421447D+00
   0   374    0.255097-176    0.145791D-70    0.320058-173    0.421447D+00
   0   375    0.468320-177    0.626881D-71    0.777769-174    0.421447D+00
   0   376    0.891064-178    0.269051D-71    0.105368-174    0.421447D+00
   0   377    0.164199-178    0.115260D-71    0.222001-175    0.421447D+00
   0   378    0.301469-179    0.492857D-72    0.380492-176    0.421447D+00
   0   379    0.567420-180    0.210359D-72    0.954805-177    0.421447D+00
   0   380    0.103154-180    0.896190D-73    0.117664-177    0.421447D+00
   0   381    0.189662-181    0.381100D-73    0.217292-178    0.421447D+00
   0   382    0.340292-182    0.161762D-73    0.420740-179    0.421447D+00
   0   383    0.623311-183    0.685359D-74    0.874306-180    0.421447D+00
   0   384    0.115535-183    0.289842D-74    0.996821-181    0.421447D+00
   0   385    0.210678-184    0.122351D-74    0.236303-181    0.421447D+00
   0   386    0.377038-185    0.515533D-75    0.513381-182    0.421447D+00
   0   387    0.677396-186    0.216826D-75    0.869229-183    0.421447D+00
   0   388    0.124153-186    0.910272D-76    0.201134-183    0.421447D+00
   0   389    0.224802-187    0.381450D-76    0.412970-184    0.421447D+00
   0   390    0.410629-188    0.159556D-76    0.655507-185    0.421447D+00
   0   391    0.737874-189    0.666184D-77    0.951055-186    0.421447D+00
   0   392    0.132807-189    0.277642D-77    0.189440-186    0.421447D+00
   0   393    0.231169-190    0.115501D-77    0.265407-187    0.421447D+00
   0   394    0.418021-191    0.479611D-78    0.612367-188    0.421447D+00
   0   395    0.721251-192    0.198776D-78    0.135449-188    0.421447D+00
   0   396    0.128804-192    0.821881D-79    0.138774-189    0.421447D+00
   0   397    0.221893-193    0.338087D-79    0.387260-190    0.421447D+00