variables =  "IG"  "JG"  "PHI"  "Temp."  "Latent_heat"  "mm"
ZONE  I=  401  J=  101
   0     0    0.100000D+01    0.886252D+00    0.000000D+00    0.243405D+00
   0     1    0.100000D+01    0.886252D+00    0.000000D+00    0.243405D+00
   0     2    0.100000D+01    0.886523D+00    0.000000D+00    0.243065D+00
   0     3    0.100000D+01    0.887065D+00    0.000000D+00    0.242385D+00
   0     4    0.100000D+01    0.887875D+00    0.000000D+00    0.241361D+00
   0     5    0.100000D+01    0.888951D+00    0.000000D+00    0.239988D+00
   0     6    0.100000D+01    0.890289D+00    0.000000D+00    0.238260D+00
   0     7    0.100000D+01    0.891885D+00    0.000000D+00    0.236169D+00
   0     8    0.100000D+01    0.893732D+00    0.000000D+00    0.233706D+00
   0     9    0.100000D+01    0.895826D+00    0.000000D+00    0.230859D+00
   0    10    0.100000D+01    0.898159D+00    0.000000D+00    0.227617D+00
   0    11    0.100000D+01    0.900723D+00    0.000000D+00    0.223963D+00
   0    12    0.100000D+01    0.903512D+00    0.000000D+00    0.219884D+00
   0    13    0.100000D+01    0.906516D+00    0.000000D+00    0.215360D+00
   0    14    0.100000D+01    0.909726D+00    0.000000D+00    0.210372D+00
   0    15    0.100000D+01    0.913134D+00    0.000000D+00    0.204900D+00
   0    16    0.100000D+01    0.916731D+00    0.000000D+00    0.198922D+00
   0    17    0.100000D+01    0.920507D+00    0.000000D+00    0.192414D+00
   0    18    0.100000D+01    0.924453D+00    0.000000D+00    0.185352D+00
   0    19    0.100000D+01    0.928560D+00    0.000000D+00    0.177712D+00
   0    20    0.100000D+01    0.932821D+00    0.399680D-10    0.169467D+00
   0    21    0.100000D+01    0.937227D+00    0.386358D-09    0.160590D+00
   0    22    0.100000D+01    0.941774D+00    0.532907D-08    0.151055D+00
   0    23    0.100000D+01    0.946457D+00    0.583933D-07    0.140830D+00
   0    24    0.100000D+01    0.951277D+00    0.940448D-07    0.129884D+00
   0    25    0.100000D+01    0.956239D+00   -0.357341D-06    0.118173D+00
   0    26    0.100000D+01    0.961357D+00   -0.178909D-04    0.105641D+00
   0    27    0.100000D+01    0.966655D+00   -0.482405D-04    0.922045D-01
   0    28    0.999998D+00    0.972181D+00   -0.148855D-03    0.777308D-01
   0    29    0.999989D+00    0.978014D+00   -0.407820D-04    0.619997D-01
   0    30    0.999929D+00    0.984288D+00    0.379103D-01    0.446476D-01
   0    31    0.999534D+00    0.991230D+00    0.230436D+00    0.250634D-01
   0    32    0.997035D+00    0.999225D+00   -0.104396D+01    0.219906D-02
   0    33    0.981712D+00    0.100886D+01    0.472795D+01   -0.253121D-01
   0    34    0.895721D+00    0.102016D+01   -0.147790D+02   -0.558708D-01
   0    35    0.522280D+00    0.103402D+01    0.230765D+02   -0.957415D-01
   0    36    0.125538D+00    0.103264D+01   -0.356401D+01   -0.898962D-01
   0    37    0.317307D-01    0.102390D+01    0.764925D+01   -0.679036D-01
   0    38    0.128453D-01    0.101884D+01   -0.814640D+01   -0.533562D-01
   0    39    0.858537D-02    0.101446D+01   -0.358368D+01   -0.413392D-01
   0    40    0.866626D-02    0.101224D+01    0.394358D+00   -0.345937D-01
   0    41    0.943496D-02    0.100873D+01   -0.416341D+01   -0.252836D-01
   0    42    0.983606D-02    0.100632D+01    0.945850D+00   -0.176044D-01
   0    43    0.103722D-01    0.100599D+01    0.610460D+01   -0.169482D-01
   0    44    0.110206D-01    0.100447D+01    0.630347D+00   -0.131161D-01
   0    45    0.112143D-01    0.100422D+01    0.309462D+01   -0.125268D-01
   0    46    0.111220D-01    0.100421D+01    0.488158D+01   -0.124679D-01
   0    47    0.114473D-01    0.100465D+01   -0.462799D+01   -0.133773D-01
   0    48    0.116384D-01    0.100350D+01    0.172624D+01   -0.103353D-01
   0    49    0.116411D-01    0.100368D+01    0.143929D+01   -0.999686D-02
   0    50    0.117958D-01    0.100313D+01   -0.185967D+01   -0.856578D-02
   0    51    0.122582D-01    0.100249D+01   -0.744766D+01   -0.709013D-02
   0    52    0.120501D-01    0.100230D+01    0.351044D+01   -0.685897D-02
   0    53    0.124576D-01    0.100204D+01    0.265159D+01   -0.653213D-02
   0    54    0.126820D-01    0.100120D+01    0.298628D+01   -0.311877D-02
   0    55    0.127505D-01    0.100038D+01   -0.157276D+01   -0.505198D-03
   0    56    0.128301D-01    0.100023D+01   -0.124608D+01   -0.130992D-02
   0    57    0.129818D-01    0.100094D+01    0.799078D+01   -0.294324D-02
   0    58    0.130636D-01    0.999764D+00   -0.601531D+01    0.856102D-03
   0    59    0.131934D-01    0.998665D+00   -0.178773D+01    0.326952D-02
   0    60    0.133802D-01    0.999494D+00   -0.152880D+00    0.203859D-02
   0    61    0.135927D-01    0.998760D+00   -0.635045D+01    0.340489D-02
   0    62    0.140826D-01    0.999415D+00    0.276439D+01    0.222732D-02
   0    63    0.136838D-01    0.999154D+00   -0.320517D+01    0.244523D-02
   0    64    0.139960D-01    0.998600D+00   -0.639036D+01    0.398768D-02
   0    65    0.140646D-01    0.997579D+00    0.553250D+01    0.674553D-02
   0    66    0.139558D-01    0.998124D+00   -0.253921D+01    0.596160D-02
   0    67    0.145326D-01    0.997839D+00   -0.599133D+01    0.657104D-02
   0    68    0.144933D-01    0.997573D+00   -0.157580D+01    0.634090D-02
   0    69    0.146028D-01    0.998388D+00    0.602370D+01    0.442573D-02
   0    70    0.147994D-01    0.997723D+00    0.163535D+01    0.577505D-02
   0    71    0.145670D-01    0.998606D+00   -0.389798D+01    0.465691D-02
   0    72    0.146189D-01    0.998478D+00   -0.697032D+01    0.394210D-02
   0    73    0.152520D-01    0.997754D+00   -0.225692D+01    0.677685D-02
   0    74    0.148417D-01    0.997930D+00    0.370771D+01    0.623376D-02
   0    75    0.142750D-01    0.998660D+00    0.515823D+01    0.428735D-02
   0    76    0.146827D-01    0.997650D+00   -0.246612D+01    0.665966D-02
   0    77    0.151083D-01    0.996807D+00   -0.890849D+01    0.942466D-02
   0    78    0.149575D-01    0.997086D+00    0.274474D+01    0.886384D-02
   0    79    0.143104D-01    0.996722D+00   -0.692163D+01    0.944560D-02
   0    80    0.142988D-01    0.996524D+00    0.762596D+01    0.993716D-02
   0    81    0.147204D-01    0.996104D+00    0.782242D+01    0.105239D-01
   0    82    0.148692D-01    0.997393D+00   -0.252709D+01    0.790820D-02
   0    83    0.147859D-01    0.997550D+00   -0.395773D+01    0.694347D-02
   0    84    0.148612D-01    0.997404D+00   -0.574776D+01    0.748601D-02
   0    85    0.145880D-01    0.996813D+00    0.696860D+01    0.858814D-02
   0    86    0.147560D-01    0.997615D+00   -0.410948D+01    0.665367D-02
   0    87    0.146642D-01    0.997186D+00    0.578282D+01    0.803717D-02
   0    88    0.145006D-01    0.997674D+00    0.462390D+01    0.635240D-02
   0    89    0.143895D-01    0.998331D+00   -0.730346D+01    0.451304D-02
   0    90    0.144887D-01    0.998186D+00   -0.186523D+01    0.477167D-02
   0    91    0.146409D-01    0.997823D+00   -0.477183D+01    0.634282D-02
   0    92    0.148986D-01    0.997894D+00   -0.119481D+01    0.597821D-02
   0    93    0.151601D-01    0.998349D+00    0.291783D+01    0.438549D-02
   0    94    0.149089D-01    0.998230D+00   -0.513379D+01    0.528271D-02
   0    95    0.148978D-01    0.998442D+00   -0.512432D+01    0.490597D-02
   0    96    0.146399D-01    0.997495D+00   -0.841072D+01    0.756049D-02
   0    97    0.144350D-01    0.997161D+00    0.432663D+01    0.795093D-02
   0    98    0.148139D-01    0.997594D+00    0.470840D+01    0.731324D-02
   0    99    0.146139D-01    0.997643D+00   -0.138458D+01    0.648491D-02
   0   100    0.148906D-01    0.996929D+00    0.252154D+01    0.880836D-02
   0   101    0.149088D-01    0.995884D+00   -0.285763D+01    0.113509D-01
   0   102    0.150667D-01    0.996449D+00   -0.413332D+00    0.103830D-01
   0   103    0.150596D-01    0.997885D+00    0.561956D+01    0.655826D-02
   0   104    0.148329D-01    0.998370D+00   -0.836736D+01    0.498127D-02
   0   105    0.145900D-01    0.998219D+00    0.512721D+01    0.499164D-02
   0   106    0.151852D-01    0.997867D+00   -0.257845D+01    0.650940D-02
   0   107    0.151427D-01    0.997558D+00    0.161437D+01    0.671427D-02
   0   108    0.147160D-01    0.996024D+00    0.276474D+01    0.106139D-01
   0   109    0.146760D-01    0.995576D+00   -0.476593D+01    0.126104D-01
   0   110    0.147343D-01    0.997013D+00   -0.128967D+01    0.833607D-02
   0   111    0.146323D-01    0.997688D+00    0.801630D+01    0.674140D-02
   0   112    0.149302D-01    0.997730D+00    0.281189D+01    0.625818D-02
   0   113    0.154260D-01    0.996735D+00   -0.892910D+01    0.992428D-02
   0   114    0.149733D-01    0.996681D+00   -0.819845D+01    0.894196D-02
   0   115    0.145224D-01    0.997306D+00    0.438288D+00    0.775569D-02
   0   116    0.148320D-01    0.998192D+00   -0.417071D+01    0.515993D-02
   0   117    0.150750D-01    0.998728D+00   -0.631971D+01    0.362881D-02
   0   118    0.146534D-01    0.998228D+00    0.475745D+01    0.449227D-02
   0   119    0.149793D-01    0.997600D+00    0.785245D+00    0.652918D-02
   0   120    0.149740D-01    0.998392D+00   -0.342870D+01    0.441032D-02
   0   121    0.152750D-01    0.997825D+00    0.136573D+01    0.685093D-02
   0   122    0.147456D-01    0.997947D+00    0.305401D+00    0.633405D-02
   0   123    0.145422D-01    0.997330D+00    0.562504D+01    0.731779D-02
   0   124    0.151843D-01    0.997399D+00    0.448611D+01    0.720346D-02
   0   125    0.150120D-01    0.997446D+00   -0.272600D+01    0.682550D-02
   0   126    0.145556D-01    0.998041D+00    0.142519D+01    0.620769D-02
   0   127    0.147533D-01    0.998918D+00    0.709205D+01    0.364508D-02
   0   128    0.146173D-01    0.996764D+00   -0.328524D+01    0.856145D-02
   0   129    0.147538D-01    0.997629D+00   -0.729506D+01    0.703327D-02
   0   130    0.147221D-01    0.996740D+00    0.485936D+01    0.920100D-02
   0   131    0.146500D-01    0.996868D+00    0.540427D+01    0.935163D-02
   0   132    0.146421D-01    0.997698D+00   -0.310976D+01    0.676058D-02
   0   133    0.145611D-01    0.998171D+00    0.325852D+01    0.574032D-02
   0   134    0.143625D-01    0.997199D+00    0.639866D+01    0.780465D-02
   0   135    0.143549D-01    0.997569D+00    0.503494D+01    0.715211D-02
   0   136    0.142274D-01    0.997892D+00    0.539486D+01    0.609071D-02
   0   137    0.143731D-01    0.997015D+00   -0.110660D+01    0.919812D-02
   0   138    0.146308D-01    0.996732D+00   -0.833638D+01    0.934855D-02
   0   139    0.145660D-01    0.996775D+00    0.482003D+01    0.888206D-02
   0   140    0.146443D-01    0.995978D+00    0.424815D+01    0.114376D-01
   0   141    0.145621D-01    0.997588D+00    0.370427D+01    0.715723D-02
   0   142    0.144312D-01    0.998242D+00    0.866272D-01    0.455131D-02
   0   143    0.147089D-01    0.999625D+00   -0.613365D+01    0.808530D-03
   0   144    0.145292D-01    0.100005D+01   -0.205300D+01    0.493237D-03
   0   145    0.145008D-01    0.999367D+00   -0.570875D+01    0.134872D-02
   0   146    0.140891D-01    0.998260D+00    0.880095D+01    0.503334D-02
   0   147    0.143958D-01    0.998010D+00    0.243550D+01    0.626256D-02
   0   148    0.145096D-01    0.997095D+00   -0.440980D+01    0.889436D-02
   0   149    0.145588D-01    0.998780D+00   -0.246553D+01    0.370991D-02
   0   150    0.146770D-01    0.998416D+00   -0.904672D+01    0.531839D-02
   0   151    0.145973D-01    0.997954D+00    0.529451D+01    0.549429D-02
   0   152    0.147175D-01    0.997425D+00   -0.499152D+01    0.689547D-02
   0   153    0.145622D-01    0.996722D+00    0.590238D+00    0.973895D-02
   0   154    0.144201D-01    0.996779D+00   -0.827758D+01    0.913348D-02
   0   155    0.146604D-01    0.997634D+00   -0.307425D+00    0.689366D-02
   0   156    0.146926D-01    0.997659D+00   -0.422413D+01    0.647891D-02
   0   157    0.142663D-01    0.997316D+00    0.543484D+01    0.763381D-02
   0   158    0.146835D-01    0.997850D+00   -0.159386D+01    0.599108D-02
   0   159    0.148080D-01    0.998564D+00    0.348531D+01    0.417100D-02
   0   160    0.146265D-01    0.998836D+00    0.552515D+01    0.281677D-02
   0   161    0.142721D-01    0.999232D+00   -0.409664D+01    0.221229D-02
   0   162    0.141454D-01    0.998934D+00   -0.352454D+01    0.242137D-02
   0   163    0.144360D-01    0.998065D+00    0.716018D+01    0.505822D-02
   0   164    0.145831D-01    0.998980D+00    0.159105D+01    0.320019D-02
   0   165    0.137623D-01    0.998582D+00    0.249374D+01    0.440988D-02
   0   166    0.143583D-01    0.997237D+00    0.197297D+01    0.756412D-02
   0   167    0.142319D-01    0.997857D+00    0.296740D+01    0.654488D-02
   0   168    0.138440D-01    0.997798D+00    0.472988D+01    0.559235D-02
   0   169    0.138629D-01    0.997976D+00    0.420455D+01    0.523035D-02
   0   170    0.137121D-01    0.998683D+00   -0.724679D+01    0.399382D-02
   0   171    0.142005D-01    0.998895D+00    0.446952D+01    0.294650D-02
   0   172    0.145039D-01    0.998637D+00   -0.751340D+01    0.470432D-02
   0   173    0.144555D-01    0.998383D+00    0.106005D+01    0.384405D-02
   0   174    0.144146D-01    0.998194D+00    0.826696D+01    0.487217D-02
   0   175    0.140885D-01    0.998096D+00    0.820161D+00    0.598568D-02
   0   176    0.141610D-01    0.998563D+00    0.844540D+01    0.476485D-02
   0   177    0.147568D-01    0.998346D+00   -0.803029D+01    0.433515D-02
   0   178    0.146771D-01    0.997554D+00    0.573602D+01    0.720756D-02
   0   179    0.142448D-01    0.997403D+00    0.231732D+01    0.798174D-02
   0   180    0.147439D-01    0.997652D+00   -0.583174D+01    0.652281D-02
   0   181    0.150603D-01    0.997623D+00   -0.171389D+01    0.614862D-02
   0   182    0.151253D-01    0.997661D+00   -0.157604D+01    0.718518D-02
   0   183    0.148406D-01    0.997563D+00   -0.503886D+01    0.652286D-02
   0   184    0.148627D-01    0.998381D+00   -0.623150D+01    0.508104D-02
   0   185    0.151827D-01    0.997191D+00    0.610486D+01    0.757101D-02
   0   186    0.155184D-01    0.996429D+00    0.695985D+01    0.963168D-02
   0   187    0.155694D-01    0.994712D+00    0.484983D+01    0.158628D-01
   0   188    0.160777D-01    0.994373D+00   -0.758968D+01    0.160730D-01
   0   189    0.168675D-01    0.993102D+00   -0.927369D+00    0.204175D-01
   0   190    0.176498D-01    0.989485D+00    0.643497D+01    0.304901D-01
   0   191    0.185884D-01    0.983451D+00    0.678444D+01    0.477202D-01
   0   192    0.215200D-01    0.974934D+00    0.387282D+01    0.704003D-01
   0   193    0.248947D-01    0.961537D+00    0.108732D+02    0.104983D+00
   0   194    0.288715D-01    0.940040D+00   -0.145034D+02    0.155519D+00
   0   195    0.294067D-01    0.905986D+00    0.243034D+01    0.216936D+00
   0   196    0.254614D-01    0.852320D+00    0.548252D+01    0.279878D+00
   0   197    0.172498D-01    0.774273D+00    0.120968D+02    0.330731D+00
   0   198    0.972411D-02    0.676020D+00    0.780512D+01    0.364336D+00
   0   199    0.448531D-02    0.567080D+00    0.219237D+01    0.385042D+00
   0   200    0.186431D-02    0.458868D+00    0.786485D+00    0.397699D+00
   0   201    0.719464D-03    0.359939D+00    0.234776D+00    0.405632D+00
   0   202    0.268019D-03    0.274839D+00    0.716044D-01    0.410763D+00
   0   203    0.900859D-04    0.205041D+00    0.530138D-01    0.414165D+00
   0   204    0.296922D-04    0.149905D+00    0.218486D-01    0.416464D+00
   0   205    0.974735D-05    0.107672D+00    0.686181D-02    0.418035D+00
   0   206    0.308462D-05    0.761475D-01    0.284933D-02    0.419116D+00
   0   207    0.926106D-06    0.531262D-01    0.113769D-02    0.419860D+00
   0   208    0.292109D-06    0.366261D-01    0.183249D-03    0.420371D+00
   0   209    0.868395D-07    0.249889D-01    0.184834D-04    0.420722D+00
   0   210    0.253819D-07    0.168945D-01    0.324150D-04    0.420961D+00
   0   211    0.746528D-08    0.113316D-01    0.372678D-05    0.421123D+00
   0   212    0.213265D-08    0.754773D-02    0.248079D-05    0.421232D+00
   0   213    0.599850D-09    0.499705D-02    0.778894D-06    0.421305D+00
   0   214    0.181396D-09    0.329093D-02    0.113525D-06    0.421354D+00
   0   215    0.569027D-10    0.215736D-02    0.720724D-07    0.421386D+00
   0   216    0.176725D-10    0.140858D-02    0.148917D-07    0.421407D+00
   0   217    0.538289D-11    0.916462D-03    0.679098D-08    0.421421D+00
   0   218    0.161851D-11    0.594446D-03    0.406291D-09    0.421430D+00
   0   219    0.462581D-12    0.384539D-03    0.503437D-09    0.421436D+00
   0   220    0.134355D-12    0.248166D-03    0.120743D-09    0.421440D+00
   0   221    0.390880D-13    0.159824D-03    0.165931D-10    0.421442D+00
   0   222    0.111664D-13    0.102741D-03    0.694540D-11    0.421444D+00
   0   223    0.318344D-14    0.659390D-04    0.322168D-11    0.421445D+00
   0   224    0.873969D-15    0.422590D-04    0.636663D-12    0.421446D+00
   0   225    0.236297D-15    0.270486D-04    0.902572D-13    0.421446D+00
   0   226    0.667219D-16    0.172934D-04    0.153362D-13    0.421447D+00
   0   227    0.178438D-16    0.110453D-04    0.683736D-14    0.421447D+00
   0   228    0.486166D-17    0.704837D-05    0.204623D-14    0.421447D+00
   0   229    0.130137D-17    0.449419D-05    0.486331D-15    0.421447D+00
   0   230    0.337507D-18    0.286355D-05    0.330025D-15    0.421447D+00
   0   231    0.876829D-19    0.182339D-05    0.745382D-16    0.421447D+00
   0   232    0.228355D-19    0.116040D-05    0.964515D-17    0.421447D+00
   0   233    0.587371D-20    0.738095D-06    0.668213D-17    0.421447D+00
   0   234    0.147770D-20    0.469265D-06    0.114028D-17    0.421447D+00
   0   235    0.376146D-21    0.298226D-06    0.476264D-18    0.421447D+00
   0   236    0.961614D-22    0.189458D-06    0.513153D-19    0.421447D+00
   0   237    0.243291D-22    0.120319D-06    0.290224D-19    0.421447D+00
   0   238    0.608805D-23    0.763888D-07    0.488100D-20    0.421447D+00
   0   239    0.157697D-23    0.484850D-07    0.927407D-21    0.421447D+00
   0   240    0.395066D-24    0.307667D-07    0.201009D-21    0.421447D+00
   0   241    0.100687D-24    0.195191D-07    0.533887D-22    0.421447D+00
   0   242    0.247229D-25    0.123809D-07    0.119841D-22    0.421447D+00
   0   243    0.612207D-26    0.785181D-08    0.537057D-23    0.421447D+00
   0   244    0.156241D-26    0.497870D-08    0.211048D-23    0.421447D+00
   0   245    0.378928D-27    0.315645D-08    0.105155D-24    0.421447D+00
   0   246    0.936912D-28    0.200089D-08    0.110480D-24    0.421447D+00
   0   247    0.231347D-28    0.126822D-08    0.296836D-25    0.421447D+00
   0   248    0.580114D-29    0.803746D-09    0.593416D-26    0.421447D+00
   0   249    0.143199D-29    0.509328D-09    0.842057D-27    0.421447D+00
   0   250    0.371133D-30    0.322727D-09    0.123091D-27    0.421447D+00
   0   251    0.906605D-31    0.204473D-09    0.612243D-28    0.421447D+00
   0   252    0.223466D-31    0.129539D-09    0.315022D-28    0.421447D+00
   0   253    0.535533D-32    0.820607D-10    0.420586D-29    0.421447D+00
   0   254    0.127915D-32    0.519803D-10    0.161485D-29    0.421447D+00
   0   255    0.300414D-33    0.329242D-10    0.310727D-30    0.421447D+00
   0   256    0.741618D-34    0.208529D-10    0.496984D-31    0.421447D+00
   0   257    0.182010D-34    0.132067D-10    0.596157D-32    0.421447D+00
   0   258    0.432782D-35    0.836373D-11    0.154439D-32    0.421447D+00
   0   259    0.102723D-35    0.529646D-11    0.662105D-33    0.421447D+00
   0   260    0.248489D-36    0.335393D-11    0.205958D-33    0.421447D+00
   0   261    0.595764D-37    0.212375D-11    0.608071D-34    0.421447D+00
   0   262    0.141236D-37    0.134474D-11    0.935694D-35    0.421447D+00
   0   263    0.349497D-38    0.851451D-12    0.142932D-35    0.421447D+00
   0   264    0.853775D-39    0.539097D-12    0.236435D-36    0.421447D+00
   0   265    0.200956D-39    0.341321D-12    0.213799D-36    0.421447D+00
   0   266    0.484644D-40    0.216097D-12    0.676474D-37    0.421447D+00
   0   267    0.117174D-40    0.136812D-12    0.766391D-38    0.421447D+00
   0   268    0.279678D-41    0.866144D-13    0.394256D-38    0.421447D+00
   0   269    0.687594D-42    0.548338D-13    0.940775D-39    0.421447D+00
   0   270    0.165317D-42    0.347136D-13    0.130890D-39    0.421447D+00
   0   271    0.397388D-43    0.219758D-13    0.394350D-40    0.421447D+00
   0   272    0.947175D-44    0.139118D-13    0.318239D-41    0.421447D+00
   0   273    0.224173D-44    0.880678D-14    0.116041D-41    0.421447D+00
   0   274    0.528997D-45    0.557501D-14    0.762557D-42    0.421447D+00
   0   275    0.123782D-45    0.352915D-14    0.510295D-43    0.421447D+00
   0   276    0.294275D-46    0.223403D-14    0.369337D-43    0.421447D+00
   0   277    0.699216D-47    0.141418D-14    0.962891D-44    0.421447D+00
   0   278    0.169711D-47    0.895193D-15    0.153577D-44    0.421447D+00
   0   279    0.404777D-48    0.566663D-15    0.263617D-45    0.421447D+00
   0   280    0.943154D-49    0.358698D-15    0.411684D-46    0.421447D+00
   0   281    0.223972D-49    0.227054D-15    0.142198D-46    0.421447D+00
   0   282    0.530085D-50    0.143723D-15    0.208728D-47    0.421447D+00
   0   283    0.130186D-50    0.909743D-16    0.123053D-47    0.421447D+00
   0   284    0.306378D-51    0.575847D-16    0.373926D-48    0.421447D+00
   0   285    0.758010D-52    0.364495D-16    0.915143D-49    0.421447D+00
   0   286    0.176745D-52    0.230712D-16    0.248479D-49    0.421447D+00
   0   287    0.415954D-53    0.146031D-16    0.157535D-50    0.421447D+00
   0   288    0.982120D-54    0.924305D-17    0.560418D-51    0.421447D+00
   0   289    0.237146D-54    0.585032D-17    0.312808D-51    0.421447D+00
   0   290    0.573066D-55    0.370287D-17    0.271613D-52    0.421447D+00
   0   291    0.129289D-55    0.234364D-17    0.708421D-53    0.421447D+00
   0   292    0.310224D-56    0.148333D-17    0.314258D-53    0.421447D+00
   0   293    0.717729D-57    0.938806D-18    0.949983D-54    0.421447D+00
   0   294    0.172301D-57    0.594167D-18    0.188427D-54    0.421447D+00
   0   295    0.410315D-58    0.376040D-18    0.402647D-55    0.421447D+00
   0   296    0.990523D-59    0.237986D-18    0.137233D-55    0.421447D+00
   0   297    0.238470D-59    0.150613D-18    0.983314D-57    0.421447D+00
   0   298    0.562664D-60    0.953154D-19    0.440754D-57    0.421447D+00
   0   299    0.134063D-60    0.603194D-19    0.176369D-57    0.421447D+00
   0   300    0.319018D-61    0.381717D-19    0.210028D-58    0.421447D+00
   0   301    0.735755D-62    0.241556D-19    0.104038D-58    0.421447D+00
   0   302    0.178974D-62    0.152857D-19    0.176672D-59    0.421447D+00
   0   303    0.415208D-63    0.967263D-20    0.316040D-60    0.421447D+00
   0   304    0.101155D-63    0.612060D-20    0.291476D-61    0.421447D+00
   0   305    0.230724D-64    0.387288D-20    0.284707D-61    0.421447D+00
   0   306    0.533487D-65    0.245056D-20    0.780844D-62    0.421447D+00
   0   307    0.129656D-65    0.155055D-20    0.820267D-63    0.421447D+00
   0   308    0.309120D-66    0.981064D-21    0.276448D-63    0.421447D+00
   0   309    0.725277D-67    0.620725D-21    0.940409D-64    0.421447D+00
   0   310    0.166638D-67    0.392728D-21    0.172888D-64    0.421447D+00
   0   311    0.386578D-68    0.248470D-21    0.415325D-65    0.421447D+00
   0   312    0.930662D-69    0.157198D-21    0.109132D-65    0.421447D+00
   0   313    0.223337D-69    0.994511D-22    0.209079D-66    0.421447D+00
   0   314    0.531304D-70    0.629162D-22    0.486499D-67    0.421447D+00
   0   315    0.127193D-70    0.398020D-22    0.493860D-68    0.421447D+00
   0   316    0.306816D-71    0.251790D-22    0.785726D-69    0.421447D+00
   0   317    0.699800D-72    0.159280D-22    0.577876D-69    0.421447D+00
   0   318    0.166569D-72    0.100757D-22    0.869531D-70    0.421447D+00
   0   319    0.390839D-73    0.637347D-23    0.221968D-70    0.421447D+00
   0   320    0.919077D-74    0.403151D-23    0.103667D-70    0.421447D+00
   0   321    0.215604D-74    0.255005D-23    0.260454D-71    0.421447D+00
   0   322    0.513113D-75    0.161295D-23    0.670894D-72    0.421447D+00
   0   323    0.123521D-75    0.102019D-23    0.144341D-72    0.421447D+00
   0   324    0.287001D-76    0.645249D-24    0.300716D-73    0.421447D+00
   0   325    0.692499D-77    0.408097D-24    0.389254D-74    0.421447D+00
   0   326    0.162596D-77    0.258100D-24    0.600494D-75    0.421447D+00
   0   327    0.381725D-78    0.163230D-24    0.374553D-75    0.421447D+00
   0   328    0.896185D-79    0.103228D-24    0.970859D-76    0.421447D+00
   0   329    0.212964D-79    0.652802D-25    0.109186D-76    0.421447D+00
   0   330    0.504283D-80    0.412811D-25    0.531856D-77    0.421447D+00
   0   331    0.122891D-80    0.261040D-25    0.559574D-78    0.421447D+00
   0   332    0.289439D-81    0.165061D-25    0.213876D-78    0.421447D+00
   0   333    0.653688D-82    0.104368D-25    0.574614D-79    0.421447D+00
   0   334    0.158687D-82    0.659888D-26    0.165683D-79    0.421447D+00
   0   335    0.369304D-83    0.417210D-26    0.429894D-80    0.421447D+00
   0   336    0.866470D-84    0.263765D-26    0.472125D-81    0.421447D+00
   0   337    0.205953D-84    0.166747D-26    0.237572D-81    0.421447D+00
   0   338    0.478393D-85    0.105409D-26    0.231664D-82    0.421447D+00
   0   339    0.114769D-85    0.666299D-27    0.725764D-83    0.421447D+00
   0   340    0.270656D-86    0.421148D-27    0.267010D-83    0.421447D+00
   0   341    0.639741D-87    0.266177D-27    0.246300D-84    0.421447D+00
   0   342    0.155467D-87    0.168220D-27    0.106869D-84    0.421447D+00
   0   343    0.356931D-88    0.106304D-27    0.386417D-85    0.421447D+00
   0   344    0.837558D-89    0.671714D-28    0.484568D-86    0.421447D+00
   0   345    0.197920D-89    0.424407D-28    0.124081D-86    0.421447D+00
   0   346    0.464313D-90    0.268126D-28    0.662578D-87    0.421447D+00
   0   347    0.113812D-90    0.169376D-28    0.147175D-87    0.421447D+00
   0   348    0.266982D-91    0.106984D-28    0.118033D-88    0.421447D+00
   0   349    0.612386D-92    0.675672D-29    0.208395D-89    0.421447D+00
   0   350    0.145643D-92    0.426677D-29    0.829348D-90    0.421447D+00
   0   351    0.337086D-93    0.269405D-29    0.459863D-90    0.421447D+00
   0   352    0.801265D-94    0.170079D-29    0.110084D-90    0.421447D+00
   0   353    0.180541D-94    0.107358D-29    0.210579D-91    0.421447D+00
   0   354    0.434168D-95    0.677560D-30    0.432109D-92    0.421447D+00
   0   355    0.104025D-95    0.427553D-30    0.148517D-92    0.421447D+00
   0   356    0.240835D-96    0.269746D-30    0.246184D-93    0.421447D+00
   0   357    0.562308D-97    0.170153D-30    0.261677D-94    0.421447D+00
   0   358    0.133056D-97    0.107310D-30    0.105195D-94    0.421447D+00
   0   359    0.316853D-98    0.676628D-31    0.341237D-95    0.421447D+00
   0   360    0.740984D-99    0.426546D-31    0.105429D-95    0.421447D+00
   0   361    0.169262D-99    0.268832D-31    0.866410D-97    0.421447D+00
   0   362    0.395222-100    0.169392D-31    0.466737D-97    0.421447D+00
   0   363    0.943524-101    0.106708D-31    0.127468D-97    0.421447D+00
   0   364    0.225030-101    0.672022D-32    0.289436D-98    0.421447D+00
   0   365    0.538590-102    0.423108D-32    0.358984D-99    0.421447D+00
   0   366    0.126858-102    0.266314D-32    0.915479-100    0.421447D+00
   0   367    0.307463-103    0.167573D-32    0.160160-100    0.421447D+00
   0   368    0.700984-104    0.105410D-32    0.104892-100    0.421447D+00
   0   369    0.168081-104    0.662848D-33    0.112906-101    0.421447D+00
   0   370    0.393419-105    0.416678D-33    0.277855-102    0.421447D+00
   0   371    0.909251-106    0.261839D-33    0.976938-103    0.421447D+00
   0   372    0.215970-106    0.164478D-33    0.652092-104    0.421447D+00
   0   373    0.509058-107    0.103281D-33    0.541729-104    0.421447D+00
   0   374    0.119612-107    0.648274D-34    0.974706-105    0.421447D+00
   0   375    0.289119-108    0.406745D-34    0.338029-105    0.421447D+00
   0   376    0.672489-109    0.255097D-34    0.833673-106    0.421447D+00
   0   377    0.156690-109    0.159919D-34    0.136447-106    0.421447D+00
   0   378    0.368477-110    0.100208D-34    0.517441-107    0.421447D+00
   0   379    0.851665-111    0.627630D-35    0.600644-108    0.421447D+00
   0   380    0.200394-111    0.392918D-35    0.230025-108    0.421447D+00
   0   381    0.474577-112    0.245861D-35    0.556643-109    0.421447D+00
   0   382    0.112240-112    0.153766D-35    0.156297-109    0.421447D+00
   0   383    0.272190-113    0.961195D-36    0.793119-111    0.421447D+00
   0   384    0.631732-114    0.600530D-36    0.822281-111    0.421447D+00
   0   385    0.149385-114    0.374995D-36    0.173595-111    0.421447D+00
   0   386    0.351882-115    0.234033D-36    0.316110-112    0.421447D+00
   0   387    0.812529-116    0.145978D-36    0.106707-112    0.421447D+00
   0   388    0.192000-116    0.910007D-37    0.164519-113    0.421447D+00
   0   389    0.440438-117    0.566950D-37    0.667846-114    0.421447D+00
   0   390    0.104254-117    0.353001D-37    0.381278-115    0.421447D+00
   0   391    0.250515-118    0.219641D-37    0.113230-115    0.421447D+00
   0   392    0.597586-119    0.136554D-37    0.583695-116    0.421447D+00
   0   393    0.137563-119    0.848060D-38    0.761596-117    0.421447D+00
   0   394    0.315629-120    0.525714D-38    0.432599-117    0.421447D+00
   0   395    0.752779-121    0.324657D-38    0.667509-118    0.421447D+00
   0   396    0.171253-121    0.198700D-38    0.828666-119    0.421447D+00
   0   397    0.404101-122    0.118822D-38    0.394730-119    0.421447D+00