variables =  "IG"  "JG"  "PHI"  "Temp."  "Latent_heat"  "mm"
ZONE  I=  401  J=  101
   0     0    0.100000D+01    0.783276D+00    0.000000D+00    0.326157D+00
   0     1    0.100000D+01    0.783276D+00    0.000000D+00    0.326157D+00
   0     2    0.100000D+01    0.784086D+00    0.000000D+00    0.325749D+00
   0     3    0.100000D+01    0.785699D+00    0.000000D+00    0.324928D+00
   0     4    0.100000D+01    0.788106D+00    0.000000D+00    0.323683D+00
   0     5    0.100000D+01    0.791291D+00    0.000000D+00    0.322001D+00
   0     6    0.100000D+01    0.795232D+00    0.000000D+00    0.319860D+00
   0     7    0.100000D+01    0.799905D+00    0.000000D+00    0.317233D+00
   0     8    0.100000D+01    0.805279D+00    0.000000D+00    0.314089D+00
   0     9    0.100000D+01    0.811322D+00    0.000000D+00    0.310385D+00
   0    10    0.100000D+01    0.817997D+00    0.000000D+00    0.306073D+00
   0    11    0.100000D+01    0.825263D+00    0.000000D+00    0.301094D+00
   0    12    0.100000D+01    0.833082D+00    0.000000D+00    0.295376D+00
   0    13    0.100000D+01    0.841409D+00    0.000000D+00    0.288835D+00
   0    14    0.100000D+01    0.850204D+00   -0.666134D-10    0.281373D+00
   0    15    0.100000D+01    0.859427D+00    0.319744D-09    0.272868D+00
   0    16    0.100000D+01    0.869040D+00    0.130562D-08    0.263178D+00
   0    17    0.100000D+01    0.879011D+00   -0.101785D-07    0.252131D+00
   0    18    0.100000D+01    0.889315D+00    0.406302D-06    0.239518D+00
   0    19    0.100000D+01    0.899939D+00    0.312518D-05    0.225089D+00
   0    20    0.100000D+01    0.910881D+00   -0.315035D-05    0.208537D+00
   0    21    0.100000D+01    0.922156D+00    0.111841D-03    0.189493D+00
   0    22    0.999997D+00    0.933803D+00    0.170756D-02    0.167515D+00
   0    23    0.999981D+00    0.945888D+00    0.149904D-01    0.142089D+00
   0    24    0.999863D+00    0.958508D+00    0.825735D-01    0.112663D+00
   0    25    0.999068D+00    0.971787D+00   -0.448532D+00    0.787539D-01
   0    26    0.993720D+00    0.985987D+00   -0.199711D+01    0.399456D-01
   0    27    0.960331D+00    0.100125D+01   -0.892804D+01   -0.393879D-02
   0    28    0.779849D+00    0.101688D+01   -0.145012D+02   -0.494804D-01
   0    29    0.230384D+00    0.102356D+01   -0.662405D+02   -0.669528D-01
   0    30    0.530989D-01    0.102431D+01    0.515561D+01   -0.687109D-01
   0    31    0.173721D-01    0.102046D+01    0.277269D+01   -0.572976D-01
   0    32    0.989940D-02    0.101530D+01   -0.426393D+01   -0.433330D-01
   0    33    0.935015D-02    0.101090D+01   -0.220659D+01   -0.316655D-01
   0    34    0.998753D-02    0.100778D+01    0.374843D+01   -0.223134D-01
   0    35    0.101324D-01    0.100663D+01   -0.448477D+01   -0.192675D-01
   0    36    0.105974D-01    0.100577D+01   -0.327067D+01   -0.160630D-01
   0    37    0.106528D-01    0.100526D+01    0.547194D+01   -0.152152D-01
   0    38    0.111445D-01    0.100508D+01    0.129439D+01   -0.149410D-01
   0    39    0.111766D-01    0.100459D+01    0.203886D+00   -0.125109D-01
   0    40    0.117896D-01    0.100279D+01    0.759099D+00   -0.823192D-02
   0    41    0.118672D-01    0.100275D+01    0.869303D-01   -0.755810D-02
   0    42    0.120283D-01    0.100282D+01   -0.492174D+01   -0.778066D-02
   0    43    0.121076D-01    0.100161D+01   -0.512415D+00   -0.446403D-02
   0    44    0.122584D-01    0.100044D+01   -0.639587D+00   -0.126225D-02
   0    45    0.126160D-01    0.100081D+01    0.417488D+01   -0.251088D-02
   0    46    0.125773D-01    0.100010D+01   -0.243848D+01    0.354057D-04
   0    47    0.130949D-01    0.100005D+01   -0.768190D+01   -0.476804D-04
   0    48    0.129990D-01    0.999256D+00   -0.259281D+01    0.163943D-02
   0    49    0.130973D-01    0.999785D+00   -0.634713D+01    0.121361D-02
   0    50    0.134739D-01    0.100049D+01    0.326336D+01   -0.212191D-02
   0    51    0.135110D-01    0.100044D+01    0.354860D+01   -0.981557D-03
   0    52    0.135181D-01    0.999121D+00   -0.220589D+01    0.217471D-02
   0    53    0.134317D-01    0.999774D+00   -0.656278D+01    0.860277D-03
   0    54    0.138413D-01    0.998597D+00    0.271003D+01    0.348676D-02
   0    55    0.140490D-01    0.999192D+00   -0.681105D+01    0.182993D-02
   0    56    0.142417D-01    0.999723D+00   -0.306593D+00    0.792855D-03
   0    57    0.140864D-01    0.999214D+00    0.363138D+01    0.221284D-02
   0    58    0.140963D-01    0.999283D+00   -0.258180D+01    0.151040D-02
   0    59    0.141919D-01    0.997792D+00    0.442355D+01    0.619018D-02
   0    60    0.141723D-01    0.998470D+00    0.141357D+01    0.418822D-02
   0    61    0.138006D-01    0.997883D+00    0.324421D+01    0.610778D-02
   0    62    0.140382D-01    0.998036D+00    0.416746D+01    0.483225D-02
   0    63    0.142580D-01    0.998104D+00   -0.809549D+01    0.609618D-02
   0    64    0.143312D-01    0.999429D+00    0.181033D+00    0.156442D-02
   0    65    0.143850D-01    0.998957D+00    0.112906D+01    0.294587D-02
   0    66    0.142898D-01    0.998077D+00    0.119991D+01    0.601536D-02
   0    67    0.141724D-01    0.998280D+00    0.766009D+01    0.557711D-02
   0    68    0.142072D-01    0.998288D+00    0.508639D+01    0.428992D-02
   0    69    0.140693D-01    0.998233D+00    0.110806D+01    0.474178D-02
   0    70    0.143804D-01    0.998080D+00   -0.847971D+01    0.524970D-02
   0    71    0.140636D-01    0.998110D+00    0.903839D+01    0.496244D-02
   0    72    0.144102D-01    0.998771D+00    0.373816D+01    0.372859D-02
   0    73    0.148916D-01    0.999242D+00   -0.570497D+01    0.253080D-02
   0    74    0.149874D-01    0.998479D+00   -0.854842D+01    0.379785D-02
   0    75    0.145695D-01    0.997133D+00    0.233789D+01    0.798309D-02
   0    76    0.146827D-01    0.996294D+00   -0.895463D+01    0.110516D-01
   0    77    0.146686D-01    0.998635D+00   -0.509110D+00    0.363076D-02
   0    78    0.148477D-01    0.998581D+00   -0.127709D+01    0.444870D-02
   0    79    0.147190D-01    0.997399D+00   -0.626379D+01    0.697818D-02
   0    80    0.144847D-01    0.997801D+00    0.131023D+01    0.600486D-02
   0    81    0.145048D-01    0.995894D+00   -0.862501D+01    0.124517D-01
   0    82    0.146083D-01    0.994382D+00   -0.803899D+01    0.156857D-01
   0    83    0.150543D-01    0.992947D+00   -0.263346D+01    0.198163D-01
   0    84    0.159038D-01    0.990403D+00   -0.864105D+01    0.271330D-01
   0    85    0.173292D-01    0.984539D+00    0.567060D+01    0.436119D-01
   0    86    0.208002D-01    0.976026D+00   -0.940494D+01    0.679396D-01
   0    87    0.236280D-01    0.962585D+00    0.555757D+00    0.102881D+00
   0    88    0.272341D-01    0.939533D+00   -0.152066D+02    0.156535D+00
   0    89    0.288546D-01    0.904111D+00    0.125518D+02    0.219437D+00
   0    90    0.251849D-01    0.850116D+00   -0.541855D+01    0.281874D+00
   0    91    0.174513D-01    0.774684D+00    0.137771D+02    0.330620D+00
   0    92    0.102245D-01    0.677750D+00    0.502670D+00    0.363952D+00
   0    93    0.477246D-02    0.568921D+00    0.247311D+01    0.384777D+00
   0    94    0.189962D-02    0.460223D+00    0.997073D-01    0.397572D+00
   0    95    0.722190D-03    0.360762D+00    0.693945D+00    0.405577D+00
   0    96    0.263594D-03    0.275228D+00    0.152724D+00    0.410742D+00
   0    97    0.905615D-04    0.205105D+00    0.835299D-01    0.414163D+00
   0    98    0.306942D-04    0.149774D+00    0.519137D-02    0.416469D+00
   0    99    0.990369D-05    0.107436D+00    0.953282D-03    0.418044D+00
   0   100    0.312406D-05    0.758695D-01    0.289673D-02    0.419125D+00
   0   101    0.957116D-06    0.528475D-01    0.425531D-03    0.419868D+00
   0   102    0.291674D-06    0.363716D-01    0.149735D-03    0.420379D+00
   0   103    0.861363D-07    0.247705D-01    0.372057D-04    0.420728D+00
   0   104    0.254418D-07    0.167156D-01    0.466904D-05    0.420966D+00
   0   105    0.744327D-08    0.111901D-01    0.175160D-05    0.421127D+00
   0   106    0.213534D-08    0.743904D-02    0.243557D-05    0.421235D+00
   0   107    0.606002D-09    0.491542D-02    0.569298D-06    0.421307D+00
   0   108    0.179411D-09    0.323078D-02    0.167108D-06    0.421355D+00
   0   109    0.562628D-10    0.211374D-02    0.557731D-07    0.421387D+00
   0   110    0.174145D-10    0.137737D-02    0.906503D-08    0.421408D+00
   0   111    0.515115D-11    0.894385D-03    0.238649D-08    0.421422D+00
   0   112    0.155123D-11    0.578986D-03    0.143807D-08    0.421431D+00
   0   113    0.467408D-12    0.373805D-03    0.170301D-09    0.421436D+00
   0   114    0.136631D-12    0.240769D-03    0.107493D-09    0.421440D+00
   0   115    0.398432D-13    0.154759D-03    0.360512D-10    0.421443D+00
   0   116    0.113513D-13    0.992940D-04    0.488756D-11    0.421444D+00
   0   117    0.318979D-14    0.636050D-04    0.557348D-12    0.421445D+00
   0   118    0.873539D-15    0.406857D-04    0.123472D-11    0.421446D+00
   0   119    0.238644D-15    0.259924D-04    0.304860D-12    0.421446D+00
   0   120    0.646316D-16    0.165869D-04    0.788514D-13    0.421447D+00
   0   121    0.172378D-16    0.105743D-04    0.225062D-13    0.421447D+00
   0   122    0.471972D-17    0.673519D-05    0.292997D-14    0.421447D+00
   0   123    0.127394D-17    0.428652D-05    0.876917D-15    0.421447D+00
   0   124    0.330004D-18    0.272616D-05    0.384754D-15    0.421447D+00
   0   125    0.861083D-19    0.173269D-05    0.780518D-16    0.421447D+00
   0   126    0.224539D-19    0.110063D-05    0.296706D-16    0.421447D+00
   0   127    0.571193D-20    0.698780D-06    0.577700D-17    0.421447D+00
   0   128    0.145199D-20    0.443442D-06    0.106624D-17    0.421447D+00
   0   129    0.378644D-21    0.281288D-06    0.976299D-19    0.421447D+00
   0   130    0.952603D-22    0.178362D-06    0.644212D-19    0.421447D+00
   0   131    0.244475D-22    0.113059D-06    0.994849D-20    0.421447D+00
   0   132    0.615410D-23    0.716433D-07    0.513980D-20    0.421447D+00
   0   133    0.152500D-23    0.453864D-07    0.131832D-20    0.421447D+00
   0   134    0.377993D-24    0.287453D-07    0.113901D-21    0.421447D+00
   0   135    0.933233D-25    0.182016D-07    0.348687D-22    0.421447D+00
   0   136    0.227962D-25    0.115229D-07    0.132682D-22    0.421447D+00
   0   137    0.569360D-26    0.729344D-08    0.490353D-23    0.421447D+00
   0   138    0.143935D-26    0.461561D-08    0.151588D-23    0.421447D+00
   0   139    0.351847D-27    0.292049D-08    0.208098D-24    0.421447D+00
   0   140    0.866072D-28    0.184764D-08    0.104592D-24    0.421447D+00
   0   141    0.208303D-28    0.116874D-08    0.200221D-25    0.421447D+00
   0   142    0.528008D-29    0.739193D-09    0.290635D-26    0.421447D+00
   0   143    0.128009D-29    0.467453D-09    0.145028D-26    0.421447D+00
   0   144    0.314775D-30    0.295568D-09    0.371956D-27    0.421447D+00
   0   145    0.740685D-31    0.186859D-09    0.640886D-28    0.421447D+00
   0   146    0.181907D-31    0.118115D-09    0.233433D-28    0.421447D+00
   0   147    0.456032D-32    0.746492D-10    0.395350D-29    0.421447D+00
   0   148    0.107049D-32    0.471700D-10    0.158962D-29    0.421447D+00
   0   149    0.260019D-33    0.298004D-10    0.328181D-30    0.421447D+00
   0   150    0.620656D-34    0.188227D-10    0.668786D-31    0.421447D+00
   0   151    0.151676D-34    0.118860D-10    0.137913D-31    0.421447D+00
   0   152    0.372133D-35    0.750362D-11    0.968253D-33    0.421447D+00
   0   153    0.906135D-36    0.473559D-11    0.893755D-33    0.421447D+00
   0   154    0.214497D-36    0.298766D-11    0.136000D-33    0.421447D+00
   0   155    0.508160D-37    0.188419D-11    0.694904D-34    0.421447D+00
   0   156    0.119953D-37    0.118779D-11    0.118813D-34    0.421447D+00
   0   157    0.288790D-38    0.748438D-12    0.143090D-35    0.421447D+00
   0   158    0.697627D-39    0.471363D-12    0.701530D-36    0.421447D+00
   0   159    0.167583D-39    0.296700D-12    0.147792D-36    0.421447D+00
   0   160    0.400391D-40    0.186648D-12    0.113977D-37    0.421447D+00
   0   161    0.932519D-41    0.117341D-12    0.818797D-38    0.421447D+00
   0   162    0.227441D-41    0.737187D-13    0.867994D-39    0.421447D+00
   0   163    0.544125D-42    0.462790D-13    0.760751D-39    0.421447D+00
   0   164    0.132342D-42    0.290299D-13    0.730122D-40    0.421447D+00
   0   165    0.316169D-43    0.181946D-13    0.162031D-40    0.421447D+00
   0   166    0.774728D-44    0.113933D-13    0.102220D-40    0.421447D+00
   0   167    0.184250D-44    0.712768D-14    0.182502D-41    0.421447D+00
   0   168    0.434226D-45    0.445465D-14    0.319763D-42    0.421447D+00
   0   169    0.100678D-45    0.278116D-14    0.780440D-43    0.421447D+00
   0   170    0.247876D-46    0.173445D-14    0.259671D-43    0.421447D+00
   0   171    0.569225D-47    0.108044D-14    0.736233D-44    0.421447D+00
   0   172    0.137773D-47    0.672239D-15    0.602810D-45    0.421447D+00
   0   173    0.330524D-48    0.417742D-15    0.313673D-45    0.421447D+00
   0   174    0.772281D-49    0.259261D-15    0.681572D-46    0.421447D+00
   0   175    0.184416D-49    0.160690D-15    0.699084D-47    0.421447D+00
   0   176    0.439483D-50    0.994595D-16    0.118542D-47    0.421447D+00
   0   177    0.104880D-50    0.614740D-16    0.450249D-48    0.421447D+00
   0   178    0.253635D-51    0.379409D-16    0.281634D-48    0.421447D+00
   0   179    0.605212D-52    0.233818D-16    0.720962D-49    0.421447D+00
   0   180    0.144160D-52    0.143875D-16    0.196842D-49    0.421447D+00
   0   181    0.341710D-53    0.883925D-17    0.129217D-50    0.421447D+00
   0   182    0.794547D-54    0.542193D-17    0.531224D-51    0.421447D+00
   0   183    0.184018D-54    0.332036D-17    0.257033D-51    0.421447D+00
   0   184    0.434120D-55    0.203001D-17    0.252028D-52    0.421447D+00
   0   185    0.102683D-55    0.123902D-17    0.332583D-53    0.421447D+00
   0   186    0.238693D-56    0.754943D-18    0.296100D-53    0.421447D+00
   0   187    0.572673D-57    0.459191D-18    0.352492D-54    0.421447D+00
   0   188    0.131252D-57    0.278809D-18    0.174903D-54    0.421447D+00
   0   189    0.316983D-58    0.168982D-18    0.296294D-55    0.421447D+00
   0   190    0.747178D-59    0.102232D-18    0.946809D-56    0.421447D+00
   0   191    0.179363D-59    0.617358D-19    0.224429D-56    0.421447D+00
   0   192    0.430345D-60    0.372118D-19    0.320796D-57    0.421447D+00
   0   193    0.101898D-60    0.223877D-19    0.359383D-58    0.421447D+00
   0   194    0.234606D-61    0.134436D-19    0.253851D-58    0.421447D+00
   0   195    0.556555D-62    0.805732D-20    0.263147D-59    0.421447D+00
   0   196    0.131015D-62    0.481979D-20    0.103591D-59    0.421447D+00
   0   197    0.316991D-63    0.287754D-20    0.153301D-60    0.421447D+00
   0   198    0.740225D-64    0.171461D-20    0.943424D-61    0.421447D+00
   0   199    0.174920D-64    0.101965D-20    0.208164D-61    0.421447D+00
   0   200    0.400427D-65    0.605165D-21    0.560985D-62    0.421447D+00
   0   201    0.953614D-66    0.358450D-21    0.582308D-63    0.421447D+00
   0   202    0.224323D-66    0.211890D-21    0.141960D-63    0.421447D+00
   0   203    0.505599D-67    0.125002D-21    0.271293D-64    0.421447D+00
   0   204    0.121051D-67    0.735932D-22    0.626163D-65    0.421447D+00
   0   205    0.279853D-68    0.432388D-22    0.129748D-65    0.421447D+00
   0   206    0.668973D-69    0.253523D-22    0.963130D-66    0.421447D+00
   0   207    0.155137D-69    0.148344D-22    0.214750D-66    0.421447D+00
   0   208    0.370522D-70    0.866207D-23    0.287974D-67    0.421447D+00
   0   209    0.883270D-71    0.504746D-23    0.101273D-67    0.421447D+00
   0   210    0.211233D-71    0.293509D-23    0.194810D-68    0.421447D+00
   0   211    0.491448D-72    0.170318D-23    0.470211D-69    0.421447D+00
   0   212    0.115553D-72    0.986262D-24    0.153857D-69    0.421447D+00
   0   213    0.264521D-73    0.569916D-24    0.215592D-70    0.421447D+00
   0   214    0.615379D-74    0.328636D-24    0.655988D-71    0.421447D+00
   0   215    0.147177D-74    0.189105D-24    0.937558D-72    0.421447D+00
   0   216    0.348359D-75    0.108585D-24    0.175920D-72    0.421447D+00
   0   217    0.818954D-76    0.622183D-25    0.330327D-73    0.421447D+00
   0   218    0.193465D-76    0.355749D-25    0.901665D-74    0.421447D+00
   0   219    0.460879D-77    0.202976D-25    0.551956D-74    0.421447D+00
   0   220    0.106306D-77    0.115563D-25    0.443549D-75    0.421447D+00
   0   221    0.251835D-78    0.656551D-26    0.206482D-75    0.421447D+00
   0   222    0.590783D-79    0.372210D-26    0.898823D-76    0.421447D+00
   0   223    0.142605D-79    0.210562D-26    0.558236D-77    0.421447D+00
   0   224    0.338464D-80    0.118861D-26    0.342313D-77    0.421447D+00
   0   225    0.818085D-81    0.669526D-27    0.994298D-78    0.421447D+00
   0   226    0.190200D-81    0.376325D-27    0.786245D-79    0.421447D+00
   0   227    0.446703D-82    0.211070D-27    0.612040D-79    0.421447D+00
   0   228    0.106697D-82    0.118128D-27    0.283349D-80    0.421447D+00
   0   229    0.249814D-83    0.659703D-28    0.984226D-81    0.421447D+00
   0   230    0.581470D-84    0.367626D-28    0.722311D-81    0.421447D+00
   0   231    0.133554D-84    0.204423D-28    0.907435D-82    0.421447D+00
   0   232    0.316233D-85    0.113427D-28    0.271046D-82    0.421447D+00
   0   233    0.726682D-86    0.628009D-29    0.870703D-83    0.421447D+00
   0   234    0.170922D-86    0.346959D-29    0.144369D-83    0.421447D+00
   0   235    0.413688D-87    0.191273D-29    0.269662D-84    0.421447D+00
   0   236    0.987103D-88    0.105219D-29    0.118095D-84    0.421447D+00
   0   237    0.237644D-88    0.577554D-30    0.321073D-85    0.421447D+00
   0   238    0.572999D-89    0.316341D-30    0.535139D-86    0.421447D+00
   0   239    0.132402D-89    0.172894D-30    0.408081D-87    0.421447D+00
   0   240    0.322522D-90    0.942903D-31    0.409037D-87    0.421447D+00
   0   241    0.774249D-91    0.513117D-31    0.322194D-88    0.421447D+00
   0   242    0.184724D-91    0.278630D-31    0.452953D-89    0.421447D+00
   0   243    0.434509D-92    0.150973D-31    0.348540D-89    0.421447D+00
   0   244    0.101020D-92    0.816275D-32    0.137297D-89    0.421447D+00
   0   245    0.235795D-93    0.440387D-32    0.847050D-91    0.421447D+00
   0   246    0.549887D-94    0.237081D-32    0.773043D-91    0.421447D+00
   0   247    0.127645D-94    0.127356D-32    0.154395D-91    0.421447D+00
   0   248    0.305400D-95    0.682664D-33    0.167148D-92    0.421447D+00
   0   249    0.691693D-96    0.365139D-33    0.530396D-93    0.421447D+00
   0   250    0.165763D-96    0.194882D-33    0.561100D-94    0.421447D+00
   0   251    0.393506D-97    0.103789D-33    0.504473D-94    0.421447D+00
   0   252    0.901799D-98    0.551562D-34    0.950130D-95    0.421447D+00
   0   253    0.208942D-98    0.292484D-34    0.122596D-95    0.421447D+00
   0   254    0.496463D-99    0.154766D-34    0.496808D-96    0.421447D+00
   0   255    0.112414D-99    0.817175D-35    0.156484D-96    0.421447D+00
   0   256    0.260681-100    0.430547D-35    0.127431D-97    0.421447D+00
   0   257    0.614045-101    0.226356D-35    0.842050D-98    0.421447D+00
   0   258    0.139607-101    0.118749D-35    0.160173D-98    0.421447D+00
   0   259    0.328888-102    0.621638D-36    0.437343D-99    0.421447D+00
   0   260    0.779127-103    0.324723D-36    0.583332-100    0.421447D+00
   0   261    0.175569-103    0.169261D-36    0.220811-100    0.421447D+00
   0   262    0.404470-104    0.880377D-37    0.413071-101    0.421447D+00
   0   263    0.946467-105    0.456932D-37    0.851929-102    0.421447D+00
   0   264    0.220975-105    0.236649D-37    0.295780-102    0.421447D+00
   0   265    0.515325-106    0.122301D-37    0.242913-103    0.421447D+00
   0   266    0.118003-106    0.630702D-38    0.127910-103    0.421447D+00
   0   267    0.268914-107    0.324558D-38    0.281526-104    0.421447D+00
   0   268    0.626588-108    0.166661D-38    0.729459-105    0.421447D+00
   0   269    0.140164-108    0.853979D-39    0.150161-105    0.421447D+00
   0   270    0.312330-109    0.436652D-39    0.424651-106    0.421447D+00
   0   271    0.737490-110    0.222792D-39    0.573741-107    0.421447D+00
   0   272    0.163093-110    0.113433D-39    0.121838-107    0.421447D+00
   0   273    0.369567-111    0.576307D-40    0.426115-108    0.421447D+00
   0   274    0.826925-112    0.292177D-40    0.110831-108    0.421447D+00
   0   275    0.185019-112    0.147814D-40    0.102940-109    0.421447D+00
   0   276    0.412092-113    0.746217D-41    0.599533-110    0.421447D+00
   0   277    0.941553-114    0.375918D-41    0.308154-111    0.421447D+00
   0   278    0.204740-114    0.188973D-41    0.228288-111    0.421447D+00
   0   279    0.469622-115    0.947958D-42    0.210285-112    0.421447D+00
   0   280    0.104619-115    0.474525D-42    0.765428-113    0.421447D+00
   0   281    0.236457-116    0.237034D-42    0.303799-113    0.421447D+00
   0   282    0.524957-117    0.118153D-42    0.595986-114    0.421447D+00
   0   283    0.114122-117    0.587712D-43    0.186378-114    0.421447D+00
   0   284    0.256080-118    0.291721D-43    0.194917-115    0.421447D+00
   0   285    0.559659-119    0.144496D-43    0.863180-116    0.421447D+00
   0   286    0.123642-119    0.714219D-44    0.106712-116    0.421447D+00
   0   287    0.277631-120    0.352284D-44    0.425156-117    0.421447D+00
   0   288    0.599664-121    0.173397D-44    0.436723-118    0.421447D+00
   0   289    0.133813-121    0.851688D-45    0.164744-118    0.421447D+00
   0   290    0.297702-122    0.417453D-45    0.151980-119    0.421447D+00
   0   291    0.662046-123    0.204186D-45    0.707556-120    0.421447D+00
   0   292    0.144024-123    0.996630D-46    0.901211-121    0.421447D+00
   0   293    0.321089-124    0.485439D-46    0.388469-121    0.421447D+00
   0   294    0.677955-125    0.235954D-46    0.955035-122    0.421447D+00
   0   295    0.146082-125    0.114450D-46    0.242169-122    0.421447D+00
   0   296    0.303573-126    0.553982D-47    0.237159-123    0.421447D+00
   0   297    0.651675-127    0.267591D-47    0.627846-124    0.421447D+00
   0   298    0.140862-127    0.128987D-47    0.114414-124    0.421447D+00
   0   299    0.299840-128    0.620461D-48    0.494445-125    0.421447D+00
   0   300    0.667432-129    0.297839D-48    0.678528-126    0.421447D+00
   0   301    0.140931-129    0.142675D-48    0.167251-126    0.421447D+00
   0   302    0.288173-130    0.682047D-49    0.468935-127    0.421447D+00
   0   303    0.619400-131    0.325372D-49    0.605262-128    0.421447D+00
   0   304    0.130565-131    0.154899D-49    0.189922-128    0.421447D+00
   0   305    0.272891-132    0.735899D-50    0.183541-129    0.421447D+00
   0   306    0.579283-133    0.348892D-50    0.957175-130    0.421447D+00
   0   307    0.122508-133    0.165070D-50    0.104980-130    0.421447D+00
   0   308    0.248196-134    0.779382D-51    0.217825-131    0.421447D+00
   0   309    0.509243-135    0.367230D-51    0.434442-132    0.421447D+00
   0   310    0.105311-135    0.172676D-51    0.102510-132    0.421447D+00
   0   311    0.230599-136    0.810279D-52    0.113503-133    0.421447D+00
   0   312    0.466588-137    0.379442D-52    0.459162-134    0.421447D+00
   0   313    0.959293-138    0.177323D-52    0.161594-134    0.421447D+00
   0   314    0.200753-138    0.826981D-53    0.331455-135    0.421447D+00
   0   315    0.412467-139    0.384890D-53    0.354316-136    0.421447D+00
   0   316    0.812759-140    0.178768D-53    0.878913-137    0.421447D+00
   0   317    0.169467-140    0.828624D-54    0.261680-137    0.421447D+00
   0   318    0.341701-141    0.383299D-54    0.445040-138    0.421447D+00
   0   319    0.688480-142    0.176943D-54    0.105592-138    0.421447D+00
   0   320    0.142081-142    0.815164D-55    0.961580-140    0.421447D+00
   0   321    0.287531-143    0.374777D-55    0.278277-140    0.421447D+00
   0   322    0.580012-144    0.171957D-55    0.606636-141    0.421447D+00
   0   323    0.117140-144    0.787377D-56    0.174769-141    0.421447D+00
   0   324    0.238141-145    0.359805D-56    0.349053-142    0.421447D+00
   0   325    0.478499-146    0.164086D-56    0.554701-143    0.421447D+00
   0   326    0.991087-147    0.746786D-57    0.727661-144    0.421447D+00
   0   327    0.193658-147    0.339191D-57    0.165342-144    0.421447D+00
   0   328    0.378769-148    0.153750D-57    0.373530-145    0.421447D+00
   0   329    0.757321-149    0.695521D-58    0.636882-146    0.421447D+00
   0   330    0.149777-149    0.314000D-58    0.171302-146    0.421447D+00
   0   331    0.294134-150    0.141474D-58    0.537787-147    0.421447D+00
   0   332    0.576036-151    0.636135D-59    0.621493-148    0.421447D+00
   0   333    0.109766-151    0.285463D-59    0.184835-148    0.421447D+00
   0   334    0.224774-152    0.127844D-59    0.331119-149    0.421447D+00
   0   335    0.437133-153    0.571399D-60    0.541330-150    0.421447D+00
   0   336    0.868196-154    0.254876D-60    0.130420-150    0.421447D+00
   0   337    0.165458-154    0.113462D-60    0.221755-151    0.421447D+00
   0   338    0.324351-155    0.504087D-61    0.302227-152    0.421447D+00
   0   339    0.620544-156    0.223508D-61    0.541506-153    0.421447D+00
   0   340    0.120755-156    0.989043D-62    0.181839-153    0.421447D+00
   0   341    0.228311-157    0.436790D-62    0.217489-154    0.421447D+00
   0   342    0.452890-158    0.192516D-62    0.459961-155    0.421447D+00
   0   343    0.870704-159    0.846833D-63    0.134365-155    0.421447D+00
   0   344    0.163034-159    0.371764D-63    0.300651-156    0.421447D+00
   0   345    0.318863-160    0.162883D-63    0.250995-157    0.421447D+00
   0   346    0.607634-161    0.712237D-64    0.926926-158    0.421447D+00
   0   347    0.119304-161    0.310824D-64    0.816076-159    0.421447D+00
   0   348    0.224237-162    0.135377D-64    0.285605-159    0.421447D+00
   0   349    0.416495-163    0.588465D-65    0.647441-160    0.421447D+00
   0   350    0.796456-164    0.255293D-65    0.703256-161    0.421447D+00
   0   351    0.148206-164    0.110536D-65    0.168064-161    0.421447D+00
   0   352    0.280898-165    0.477652D-66    0.306932-162    0.421447D+00
   0   353    0.541582-166    0.206000D-66    0.737898-163    0.421447D+00
   0   354    0.100553-166    0.886688D-67    0.137127-163    0.421447D+00
   0   355    0.182313-167    0.380910D-67    0.205433-164    0.421447D+00
   0   356    0.326389-168    0.163314D-67    0.369402-165    0.421447D+00
   0   357    0.617776-169    0.698838D-68    0.886130-166    0.421447D+00
   0   358    0.114053-169    0.298456D-68    0.207026-166    0.421447D+00
   0   359    0.213288-170    0.127215D-68    0.331932-167    0.421447D+00
   0   360    0.396186-171    0.541186D-69    0.686759-168    0.421447D+00
   0   361    0.721947-172    0.229779D-69    0.114664-168    0.421447D+00
   0   362    0.133602-172    0.973709D-70    0.163506-169    0.421447D+00
   0   363    0.245634-173    0.411817D-70    0.415744-170    0.421447D+00
   0   364    0.462371-174    0.173835D-70    0.435452-171    0.421447D+00
   0   365    0.823104-175    0.732365D-71    0.117070-171    0.421447D+00
   0   366    0.144467-175    0.307948D-71    0.289541-172    0.421447D+00
   0   367    0.259271-176    0.129237D-71    0.378923-173    0.421447D+00
   0   368    0.474539-177    0.541325D-72    0.914765-174    0.421447D+00
   0   369    0.834901-178    0.226303D-72    0.173329-174    0.421447D+00
   0   370    0.149500-178    0.944248D-73    0.296325-175    0.421447D+00
   0   371    0.276069-179    0.393229D-73    0.486690-176    0.421447D+00
   0   372    0.503182-180    0.163444D-73    0.658881-177    0.421447D+00
   0   373    0.883266-181    0.678046D-74    0.168323-177    0.421447D+00
   0   374    0.156021-181    0.280747D-74    0.216404-178    0.421447D+00
   0   375    0.270296-182    0.116022D-74    0.548402-179    0.421447D+00
   0   376    0.466613-183    0.478556D-75    0.936814-180    0.421447D+00
   0   377    0.837855-184    0.197013D-75    0.112990-180    0.421447D+00
   0   378    0.144851-184    0.809519D-76    0.239575-181    0.421447D+00
   0   379    0.258186-185    0.331995D-76    0.272870-182    0.421447D+00
   0   380    0.447150-186    0.135896D-76    0.982938-183    0.421447D+00
   0   381    0.789258-187    0.555210D-77    0.128139-183    0.421447D+00
   0   382    0.138273-187    0.226402D-77    0.253050-184    0.421447D+00
   0   383    0.236550-188    0.921468D-78    0.247003-185    0.421447D+00
   0   384    0.438787-189    0.374331D-78    0.542991-186    0.421447D+00
   0   385    0.756505-190    0.151778D-78    0.112154-186    0.421447D+00
   0   386    0.128799-190    0.614240D-79    0.228657-187    0.421447D+00
   0   387    0.220321-191    0.248112D-79    0.263415-188    0.421447D+00
   0   388    0.377298-192    0.100031D-79    0.644357-189    0.421447D+00
   0   389    0.636770-193    0.402538D-80    0.106899-189    0.421447D+00
   0   390    0.109389-193    0.161681D-80    0.176963-190    0.421447D+00
   0   391    0.188067-194    0.648176D-81    0.321873-191    0.421447D+00
   0   392    0.316070-195    0.259365D-81    0.522399-192    0.421447D+00
   0   393    0.531925-196    0.103589D-81    0.969968-193    0.421447D+00
   0   394    0.897838-197    0.412949D-82    0.143586-193    0.421447D+00
   0   395    0.149622-197    0.164300D-82    0.180798-194    0.421447D+00
   0   396    0.252377-198    0.652212D-83    0.320622-195    0.421447D+00
   0   397    0.414571-199    0.257731D-83    0.618091-196    0.421447D+00