variables =  "IG"  "JG"  "PHI"  "Temp."  "Latent_heat"  "mm"
ZONE  I=  401  J=  101
   0     0    0.100000D+01    0.909115D+00    0.000000D+00    0.211334D+00
   0     1    0.100000D+01    0.909115D+00    0.000000D+00    0.211334D+00
   0     2    0.100000D+01    0.909300D+00    0.000000D+00    0.211042D+00
   0     3    0.100000D+01    0.909672D+00    0.000000D+00    0.210458D+00
   0     4    0.100000D+01    0.910227D+00    0.000000D+00    0.209579D+00
   0     5    0.100000D+01    0.910966D+00    0.000000D+00    0.208403D+00
   0     6    0.100000D+01    0.911885D+00    0.000000D+00    0.206927D+00
   0     7    0.100000D+01    0.912983D+00    0.000000D+00    0.205147D+00
   0     8    0.100000D+01    0.914257D+00    0.000000D+00    0.203057D+00
   0     9    0.100000D+01    0.915704D+00    0.000000D+00    0.200651D+00
   0    10    0.100000D+01    0.917320D+00    0.000000D+00    0.197923D+00
   0    11    0.100000D+01    0.919101D+00    0.000000D+00    0.194866D+00
   0    12    0.100000D+01    0.921043D+00    0.000000D+00    0.191471D+00
   0    13    0.100000D+01    0.923142D+00    0.000000D+00    0.187728D+00
   0    14    0.100000D+01    0.925393D+00    0.000000D+00    0.183630D+00
   0    15    0.100000D+01    0.927792D+00    0.000000D+00    0.179164D+00
   0    16    0.100000D+01    0.930334D+00    0.000000D+00    0.174319D+00
   0    17    0.100000D+01    0.933015D+00    0.000000D+00    0.169083D+00
   0    18    0.100000D+01    0.935830D+00    0.000000D+00    0.163444D+00
   0    19    0.100000D+01    0.938775D+00    0.000000D+00    0.157387D+00
   0    20    0.100000D+01    0.941848D+00    0.000000D+00    0.150897D+00
   0    21    0.100000D+01    0.945044D+00    0.000000D+00    0.143959D+00
   0    22    0.100000D+01    0.948362D+00    0.532907D-10    0.136557D+00
   0    23    0.100000D+01    0.951800D+00    0.386358D-09    0.128672D+00
   0    24    0.100000D+01    0.955358D+00    0.118572D-08    0.120287D+00
   0    25    0.100000D+01    0.959036D+00    0.203171D-07    0.111381D+00
   0    26    0.100000D+01    0.962837D+00   -0.337197D-07    0.101935D+00
   0    27    0.100000D+01    0.966763D+00    0.219185D-06    0.919255D-01
   0    28    0.100000D+01    0.970822D+00   -0.517270D-05    0.813300D-01
   0    29    0.100000D+01    0.975022D+00   -0.128803D-04    0.701202D-01
   0    30    0.999999D+00    0.979377D+00   -0.274247D-03    0.582615D-01
   0    31    0.999997D+00    0.983908D+00    0.944700D-03    0.457047D-01
   0    32    0.999979D+00    0.988650D+00    0.990370D-02    0.323721D-01
   0    33    0.999861D+00    0.993663D+00   -0.691940D-01    0.181235D-01
   0    34    0.999117D+00    0.999057D+00    0.166130D+00    0.268485D-02
   0    35    0.994557D+00    0.100505D+01   -0.767368D+00   -0.144446D-01
   0    36    0.967260D+00    0.101190D+01   -0.105840D+02   -0.336550D-01
   0    37    0.818808D+00    0.101962D+01   -0.278972D+02   -0.571369D-01
   0    38    0.290423D+00    0.102457D+01    0.536881D+02   -0.709705D-01
   0    39    0.676822D-01    0.102165D+01    0.367767D+01   -0.616323D-01
   0    40    0.200118D-01    0.101963D+01   -0.824227D+01   -0.548933D-01
   0    41    0.991001D-02    0.101648D+01    0.396883D+01   -0.468899D-01
   0    42    0.864315D-02    0.101371D+01    0.349461D+01   -0.390926D-01
   0    43    0.907604D-02    0.101082D+01   -0.342761D+01   -0.306824D-01
   0    44    0.966343D-02    0.100886D+01   -0.277269D+01   -0.247860D-01
   0    45    0.101899D-01    0.100723D+01   -0.401920D+01   -0.207253D-01
   0    46    0.108101D-01    0.100699D+01   -0.472672D+01   -0.204772D-01
   0    47    0.113799D-01    0.100580D+01   -0.372723D+01   -0.164778D-01
   0    48    0.114876D-01    0.100436D+01   -0.174849D+01   -0.120898D-01
   0    49    0.114587D-01    0.100331D+01    0.563182D+01   -0.904904D-02
   0    50    0.119043D-01    0.100236D+01    0.488402D+01   -0.642253D-02
   0    51    0.119941D-01    0.100232D+01    0.954946D+00   -0.676595D-02
   0    52    0.120793D-01    0.100293D+01   -0.256233D+01   -0.792369D-02
   0    53    0.119946D-01    0.100217D+01   -0.238279D+01   -0.603515D-02
   0    54    0.120279D-01    0.100147D+01    0.647283D+01   -0.460575D-02
   0    55    0.127253D-01    0.100183D+01    0.441464D+01   -0.482526D-02
   0    56    0.128405D-01    0.100120D+01    0.462843D+01   -0.386339D-02
   0    57    0.132117D-01    0.100099D+01   -0.309153D+01   -0.301739D-02
   0    58    0.131254D-01    0.100163D+01    0.698330D+01   -0.450214D-02
   0    59    0.133829D-01    0.100083D+01   -0.756860D+01   -0.259862D-02
   0    60    0.132588D-01    0.100058D+01    0.490847D+01   -0.141460D-02
   0    61    0.132529D-01    0.999397D+00   -0.503124D+01    0.192601D-02
   0    62    0.134273D-01    0.999386D+00   -0.339965D+01    0.229187D-02
   0    63    0.139280D-01    0.998308D+00   -0.576245D+00    0.465163D-02
   0    64    0.136949D-01    0.999509D+00    0.358247D+01    0.195979D-02
   0    65    0.138870D-01    0.999270D+00    0.256590D+01    0.230214D-02
   0    66    0.140829D-01    0.998360D+00    0.654203D+01    0.426081D-02
   0    67    0.139218D-01    0.997939D+00   -0.213688D+01    0.535592D-02
   0    68    0.143339D-01    0.997897D+00    0.545865D+01    0.661053D-02
   0    69    0.143877D-01    0.997535D+00    0.598421D+01    0.685773D-02
   0    70    0.142368D-01    0.996411D+00    0.447565D+01    0.106469D-01
   0    71    0.146290D-01    0.997362D+00    0.103783D+01    0.760166D-02
   0    72    0.148553D-01    0.997881D+00    0.497040D+01    0.625544D-02
   0    73    0.147285D-01    0.996644D+00    0.473903D+01    0.931493D-02
   0    74    0.149048D-01    0.997242D+00    0.148306D+01    0.831285D-02
   0    75    0.154187D-01    0.996711D+00   -0.100732D+02    0.957594D-02
   0    76    0.149136D-01    0.997683D+00    0.570609D+01    0.656733D-02
   0    77    0.146924D-01    0.998036D+00    0.845101D+01    0.587781D-02
   0    78    0.146417D-01    0.997804D+00    0.763208D+01    0.633057D-02
   0    79    0.147472D-01    0.997359D+00    0.512043D+01    0.776948D-02
   0    80    0.148674D-01    0.996733D+00   -0.146762D+01    0.991251D-02
   0    81    0.151334D-01    0.996882D+00    0.795936D+01    0.930346D-02
   0    82    0.151348D-01    0.997068D+00    0.840525D+01    0.815825D-02
   0    83    0.149774D-01    0.997506D+00   -0.308117D+01    0.656773D-02
   0    84    0.152589D-01    0.997816D+00   -0.558171D+01    0.626578D-02
   0    85    0.150115D-01    0.997500D+00    0.364477D+01    0.697220D-02
   0    86    0.151059D-01    0.997746D+00   -0.172130D+01    0.607953D-02
   0    87    0.150877D-01    0.997019D+00   -0.171604D+00    0.825709D-02
   0    88    0.145884D-01    0.996124D+00   -0.689994D+00    0.117533D-01
   0    89    0.150005D-01    0.995086D+00    0.613509D+01    0.136530D-01
   0    90    0.149879D-01    0.996408D+00    0.551574D+01    0.104176D-01
   0    91    0.147326D-01    0.995464D+00    0.849140D+01    0.125297D-01
   0    92    0.149751D-01    0.996386D+00   -0.128194D+01    0.109129D-01
   0    93    0.153411D-01    0.995970D+00    0.425957D+01    0.117663D-01
   0    94    0.153391D-01    0.994779D+00   -0.648028D+01    0.145853D-01
   0    95    0.151824D-01    0.995517D+00    0.256375D+01    0.128411D-01
   0    96    0.146865D-01    0.996389D+00   -0.282131D+01    0.108743D-01
   0    97    0.152386D-01    0.996015D+00   -0.563022D+01    0.114833D-01
   0    98    0.147437D-01    0.996080D+00   -0.595247D+01    0.118005D-01
   0    99    0.150907D-01    0.996794D+00   -0.196780D+01    0.921121D-02
   0   100    0.150864D-01    0.997375D+00    0.737827D+01    0.800749D-02
   0   101    0.154560D-01    0.996500D+00   -0.189439D+01    0.100761D-01
   0   102    0.156606D-01    0.997197D+00   -0.426193D+01    0.739581D-02
   0   103    0.158868D-01    0.997392D+00    0.371551D+01    0.801642D-02
   0   104    0.156363D-01    0.997612D+00    0.195642D+01    0.602294D-02
   0   105    0.150355D-01    0.997717D+00    0.929914D+01    0.746615D-02
   0   106    0.149982D-01    0.997137D+00   -0.705953D+01    0.753436D-02
   0   107    0.154178D-01    0.995797D+00   -0.236965D+01    0.123872D-01
   0   108    0.154096D-01    0.996632D+00   -0.344017D+01    0.906488D-02
   0   109    0.156730D-01    0.996944D+00   -0.756506D-01    0.905543D-02
   0   110    0.157454D-01    0.995897D+00   -0.836574D+01    0.111958D-01
   0   111    0.155538D-01    0.996127D+00   -0.446781D+01    0.112587D-01
   0   112    0.154090D-01    0.995978D+00    0.763592D+01    0.113012D-01
   0   113    0.157342D-01    0.995851D+00   -0.696459D+00    0.115766D-01
   0   114    0.152846D-01    0.996070D+00    0.337058D+01    0.104761D-01
   0   115    0.152833D-01    0.996515D+00    0.631069D+01    0.971866D-02
   0   116    0.151967D-01    0.997258D+00    0.448214D+01    0.739102D-02
   0   117    0.155909D-01    0.996187D+00   -0.496414D+01    0.109246D-01
   0   118    0.160613D-01    0.995849D+00   -0.737565D+01    0.121923D-01
   0   119    0.155175D-01    0.995083D+00   -0.784370D+01    0.135603D-01
   0   120    0.157843D-01    0.995765D+00    0.232460D+01    0.114515D-01
   0   121    0.152329D-01    0.996524D+00   -0.135804D+01    0.973719D-02
   0   122    0.150649D-01    0.997114D+00   -0.392400D+01    0.793845D-02
   0   123    0.151795D-01    0.996838D+00    0.439396D+01    0.901900D-02
   0   124    0.155152D-01    0.997628D+00   -0.245498D+01    0.706283D-02
   0   125    0.152056D-01    0.997699D+00    0.177642D+01    0.646656D-02
   0   126    0.156501D-01    0.996441D+00    0.661440D+01    0.100461D-01
   0   127    0.150210D-01    0.996798D+00   -0.165458D+01    0.930186D-02
   0   128    0.148833D-01    0.996599D+00   -0.386120D+01    0.984479D-02
   0   129    0.152030D-01    0.996048D+00   -0.804605D+01    0.117691D-01
   0   130    0.148421D-01    0.996848D+00    0.441589D+01    0.852575D-02
   0   131    0.150401D-01    0.997403D+00   -0.241199D+01    0.715522D-02
   0   132    0.153969D-01    0.997349D+00    0.279254D+01    0.725590D-02
   0   133    0.150740D-01    0.997313D+00    0.412667D+01    0.752102D-02
   0   134    0.149852D-01    0.997399D+00   -0.865291D+01    0.727642D-02
   0   135    0.147651D-01    0.997093D+00    0.496982D+01    0.857059D-02
   0   136    0.151272D-01    0.995992D+00    0.543797D+01    0.121901D-01
   0   137    0.147606D-01    0.996082D+00   -0.637934D+01    0.105101D-01
   0   138    0.149516D-01    0.996734D+00   -0.496613D+01    0.955558D-02
   0   139    0.152054D-01    0.995993D+00    0.262359D+01    0.110556D-01
   0   140    0.150203D-01    0.996321D+00    0.201585D+01    0.999327D-02
   0   141    0.153407D-01    0.997175D+00   -0.247301D+00    0.851808D-02
   0   142    0.151657D-01    0.996358D+00   -0.741529D+01    0.104415D-01
   0   143    0.151997D-01    0.996742D+00    0.187102D+00    0.927841D-02
   0   144    0.152611D-01    0.997360D+00   -0.880112D+01    0.820169D-02
   0   145    0.152619D-01    0.996568D+00   -0.519013D+01    0.958740D-02
   0   146    0.150487D-01    0.996087D+00    0.762589D+01    0.105849D-01
   0   147    0.148331D-01    0.997248D+00    0.201957D+01    0.731938D-02
   0   148    0.151382D-01    0.996150D+00    0.478409D+01    0.104874D-01
   0   149    0.147031D-01    0.995846D+00   -0.824306D+01    0.120769D-01
   0   150    0.145317D-01    0.996755D+00    0.205098D+01    0.100061D-01
   0   151    0.147792D-01    0.995841D+00   -0.540843D+01    0.113455D-01
   0   152    0.147385D-01    0.995704D+00    0.808622D+00    0.119817D-01
   0   153    0.151324D-01    0.995509D+00   -0.292481D+01    0.126258D-01
   0   154    0.150299D-01    0.996545D+00   -0.670450D+00    0.100805D-01
   0   155    0.149938D-01    0.996224D+00   -0.588088D+01    0.106235D-01
   0   156    0.149557D-01    0.996355D+00   -0.212982D-01    0.107450D-01
   0   157    0.149995D-01    0.996306D+00   -0.472110D+01    0.104865D-01
   0   158    0.146558D-01    0.996754D+00   -0.633635D+01    0.865403D-02
   0   159    0.150774D-01    0.997333D+00   -0.151895D+00    0.761748D-02
   0   160    0.152660D-01    0.997770D+00   -0.583620D+01    0.592409D-02
   0   161    0.147936D-01    0.997379D+00   -0.421638D+01    0.745242D-02
   0   162    0.146637D-01    0.997243D+00    0.747660D+01    0.832402D-02
   0   163    0.146718D-01    0.997800D+00    0.313772D+01    0.575904D-02
   0   164    0.147190D-01    0.997131D+00   -0.129831D+01    0.814373D-02
   0   165    0.147552D-01    0.998040D+00   -0.730750D-01    0.579369D-02
   0   166    0.144460D-01    0.997067D+00   -0.616440D+01    0.790447D-02
   0   167    0.147630D-01    0.997185D+00   -0.671120D+01    0.734858D-02
   0   168    0.145064D-01    0.998317D+00    0.488791D+00    0.519964D-02
   0   169    0.146090D-01    0.997441D+00    0.436767D+01    0.670188D-02
   0   170    0.143383D-01    0.998142D+00    0.544610D+00    0.550799D-02
   0   171    0.147052D-01    0.997840D+00    0.610418D+01    0.553584D-02
   0   172    0.146064D-01    0.998297D+00    0.108141D+01    0.443555D-02
   0   173    0.147200D-01    0.998302D+00    0.526128D+01    0.455610D-02
   0   174    0.145660D-01    0.996046D+00   -0.864064D+01    0.110511D-01
   0   175    0.144408D-01    0.997226D+00    0.114343D+01    0.766442D-02
   0   176    0.144502D-01    0.997405D+00   -0.259932D+01    0.755457D-02
   0   177    0.148450D-01    0.996257D+00   -0.222920D+01    0.104047D-01
   0   178    0.145341D-01    0.997143D+00   -0.409527D+01    0.867991D-02
   0   179    0.146117D-01    0.997262D+00   -0.473185D+01    0.762650D-02
   0   180    0.144204D-01    0.996659D+00   -0.640215D+01    0.926022D-02
   0   181    0.144620D-01    0.997753D+00   -0.673067D+00    0.665818D-02
   0   182    0.143848D-01    0.998075D+00   -0.617801D+01    0.510005D-02
   0   183    0.144635D-01    0.998123D+00    0.522295D+01    0.562631D-02
   0   184    0.144188D-01    0.998193D+00   -0.344508D+01    0.500910D-02
   0   185    0.143315D-01    0.997406D+00   -0.713661D+01    0.680980D-02
   0   186    0.143860D-01    0.998052D+00   -0.704568D+01    0.597055D-02
   0   187    0.146021D-01    0.996904D+00   -0.365351D+01    0.860595D-02
   0   188    0.144183D-01    0.997466D+00   -0.662338D+01    0.683223D-02
   0   189    0.144741D-01    0.998305D+00    0.723548D+01    0.469157D-02
   0   190    0.143877D-01    0.997548D+00    0.720453D+01    0.787260D-02
   0   191    0.143914D-01    0.998183D+00   -0.358654D+01    0.516231D-02
   0   192    0.146993D-01    0.999344D+00    0.185187D+01    0.188195D-02
   0   193    0.140020D-01    0.997878D+00    0.509157D+01    0.574916D-02
   0   194    0.142220D-01    0.997971D+00    0.448820D+01    0.582969D-02
   0   195    0.142321D-01    0.999282D+00   -0.621395D+00    0.197733D-02
   0   196    0.140991D-01    0.100035D+01    0.703075D+01   -0.113002D-02
   0   197    0.141247D-01    0.998467D+00    0.700502D+01    0.455802D-02
   0   198    0.138099D-01    0.999472D+00   -0.535859D+01    0.208311D-02
   0   199    0.139040D-01    0.998872D+00   -0.538811D+00    0.283368D-02
   0   200    0.140041D-01    0.998695D+00    0.391905D+01    0.321679D-02
   0   201    0.142047D-01    0.998909D+00    0.195940D+01    0.315518D-02
   0   202    0.138006D-01    0.998532D+00   -0.515876D+01    0.367688D-02
   0   203    0.139921D-01    0.998398D+00    0.618690D+01    0.456753D-02
   0   204    0.139074D-01    0.999022D+00   -0.742007D+01    0.271510D-02
   0   205    0.142197D-01    0.997320D+00    0.593747D+01    0.740209D-02
   0   206    0.140556D-01    0.997803D+00    0.831288D+01    0.671853D-02
   0   207    0.140592D-01    0.997497D+00   -0.702414D+01    0.670549D-02
   0   208    0.139879D-01    0.997894D+00    0.556517D+01    0.624251D-02
   0   209    0.141646D-01    0.998542D+00    0.350308D+01    0.398992D-02
   0   210    0.138885D-01    0.997858D+00    0.412823D+01    0.648008D-02
   0   211    0.144153D-01    0.997458D+00    0.497811D+01    0.685604D-02
   0   212    0.143132D-01    0.997663D+00    0.345553D+01    0.718812D-02
   0   213    0.141524D-01    0.998515D+00    0.220807D+01    0.412623D-02
   0   214    0.145984D-01    0.998658D+00   -0.368401D+01    0.323102D-02
   0   215    0.140331D-01    0.999729D+00    0.375437D+01    0.143011D-02
   0   216    0.139444D-01    0.999607D+00    0.271953D+00    0.166264D-02
   0   217    0.141518D-01    0.998533D+00    0.240171D+01    0.360711D-02
   0   218    0.142275D-01    0.997358D+00   -0.772660D+01    0.752082D-02
   0   219    0.138121D-01    0.998941D+00   -0.170111D+01    0.285708D-02
   0   220    0.136489D-01    0.999999D+00   -0.576589D+01    0.339430D-03
   0   221    0.137752D-01    0.999231D+00   -0.131134D-01    0.278744D-02
   0   222    0.139204D-01    0.998660D+00   -0.440444D+01    0.371689D-02
   0   223    0.138143D-01    0.999972D+00   -0.420499D+01    0.477337D-03
   0   224    0.139346D-01    0.999936D+00    0.596469D+01    0.297334D-04
   0   225    0.136515D-01    0.998473D+00    0.703044D+01    0.468827D-02
   0   226    0.138677D-01    0.998435D+00   -0.175493D+01    0.404685D-02
   0   227    0.140325D-01    0.999033D+00    0.645502D+01    0.294510D-02
   0   228    0.138367D-01    0.998087D+00    0.759521D+01    0.490363D-02
   0   229    0.140597D-01    0.999326D+00   -0.759864D+01    0.255541D-02
   0   230    0.143284D-01    0.998522D+00   -0.629067D+01    0.402784D-02
   0   231    0.143713D-01    0.998002D+00   -0.204617D+01    0.633009D-02
   0   232    0.146715D-01    0.997984D+00    0.381118D+01    0.604632D-02
   0   233    0.144959D-01    0.998293D+00    0.140845D+01    0.454058D-02
   0   234    0.151709D-01    0.997043D+00   -0.749823D+01    0.858892D-02
   0   235    0.152637D-01    0.997649D+00   -0.838326D+01    0.700492D-02
   0   236    0.149484D-01    0.998013D+00    0.710362D+01    0.542115D-02
   0   237    0.150264D-01    0.996692D+00    0.672448D+01    0.977472D-02
   0   238    0.153729D-01    0.995482D+00   -0.890033D+01    0.135824D-01
   0   239    0.156212D-01    0.993826D+00   -0.783690D+01    0.179569D-01
   0   240    0.165236D-01    0.991560D+00    0.314279D+01    0.237885D-01
   0   241    0.180514D-01    0.987560D+00   -0.230415D+01    0.360490D-01
   0   242    0.199480D-01    0.981031D+00   -0.939888D+01    0.545394D-01
   0   243    0.232563D-01    0.970215D+00    0.928116D+01    0.828066D-01
   0   244    0.268415D-01    0.954292D+00    0.101740D+02    0.122378D+00
   0   245    0.297192D-01    0.930612D+00   -0.137066D+02    0.173404D+00
   0   246    0.282575D-01    0.887851D+00   -0.142294D+02    0.242223D+00
   0   247    0.225433D-01    0.824924D+00   -0.731032D+01    0.301511D+00
   0   248    0.148230D-01    0.738368D+00    0.678580D+01    0.345571D+00
   0   249    0.758103D-02    0.634213D+00    0.602633D+01    0.373649D+00
   0   250    0.335975D-02    0.523455D+00    0.217016D+01    0.390808D+00
   0   251    0.132470D-02    0.417273D+00    0.108033D+01    0.401355D+00
   0   252    0.484464D-03    0.322737D+00    0.339178D+00    0.408031D+00
   0   253    0.174070D-03    0.243300D+00    0.116941D+00    0.412377D+00
   0   254    0.589210D-04    0.179411D+00    0.554753D-01    0.415272D+00
   0   255    0.187811D-04    0.129786D+00    0.125732D-01    0.417231D+00
   0   256    0.609386D-05    0.923319D-01    0.253128D-02    0.418570D+00
   0   257    0.184311D-05    0.647350D-01    0.165012D-02    0.419489D+00
   0   258    0.569135D-06    0.448108D-01    0.189105D-03    0.420120D+00
   0   259    0.171769D-06    0.306742D-01    0.148138D-03    0.420552D+00
   0   260    0.503744D-07    0.207932D-01    0.335942D-04    0.420846D+00
   0   261    0.148322D-07    0.139752D-01    0.138979D-04    0.421046D+00
   0   262    0.427125D-08    0.932299D-02    0.267973D-05    0.421181D+00
   0   263    0.121732D-08    0.617912D-02    0.134170D-05    0.421271D+00
   0   264    0.356043D-09    0.407224D-02    0.471635D-07    0.421331D+00
   0   265    0.106271D-09    0.267049D-02    0.700703D-07    0.421371D+00
   0   266    0.330284D-10    0.174371D-02    0.242337D-07    0.421398D+00
   0   267    0.989406D-11    0.113428D-02    0.531153D-08    0.421415D+00
   0   268    0.300731D-11    0.735426D-03    0.431719D-09    0.421426D+00
   0   269    0.890468D-12    0.475455D-03    0.229746D-09    0.421434D+00
   0   270    0.269187D-12    0.306610D-03    0.181363D-09    0.421438D+00
   0   271    0.761223D-13    0.197291D-03    0.421063D-10    0.421441D+00
   0   272    0.216956D-13    0.126703D-03    0.259060D-10    0.421443D+00
   0   273    0.615708D-14    0.812333D-04    0.813361D-11    0.421445D+00
   0   274    0.173251D-14    0.520036D-04    0.147771D-11    0.421446D+00
   0   275    0.505373D-15    0.332480D-04    0.170948D-12    0.421446D+00
   0   276    0.134466D-15    0.212324D-04    0.825004D-13    0.421446D+00
   0   277    0.354510D-16    0.135455D-04    0.406529D-13    0.421447D+00
   0   278    0.955744D-17    0.863388D-05    0.650236D-14    0.421447D+00
   0   279    0.255913D-17    0.549893D-05    0.315973D-14    0.421447D+00
   0   280    0.679555D-18    0.349989D-05    0.173699D-15    0.421447D+00
   0   281    0.178865D-18    0.222623D-05    0.593429D-16    0.421447D+00
   0   282    0.455912D-19    0.141533D-05    0.375219D-16    0.421447D+00
   0   283    0.121337D-19    0.899379D-06    0.135469D-16    0.421447D+00
   0   284    0.309908D-20    0.571287D-06    0.113391D-17    0.421447D+00
   0   285    0.790262D-21    0.362755D-06    0.114525D-17    0.421447D+00
   0   286    0.198388D-21    0.230271D-06    0.119441D-18    0.421447D+00
   0   287    0.517185D-22    0.146133D-06    0.579218D-19    0.421447D+00
   0   288    0.132693D-22    0.927162D-07    0.707736D-20    0.421447D+00
   0   289    0.328446D-23    0.588133D-07    0.454910D-20    0.421447D+00
   0   290    0.836150D-24    0.373009D-07    0.706875D-21    0.421447D+00
   0   291    0.213362D-24    0.236536D-07    0.237291D-21    0.421447D+00
   0   292    0.513400D-25    0.149975D-07    0.432572D-22    0.421447D+00
   0   293    0.127450D-25    0.950804D-08    0.181726D-22    0.421447D+00
   0   294    0.311108D-26    0.602727D-08    0.102033D-23    0.421447D+00
   0   295    0.785029D-27    0.382045D-08    0.701911D-24    0.421447D+00
   0   296    0.189024D-27    0.242146D-08    0.904813D-25    0.421447D+00
   0   297    0.466251D-28    0.153466D-08    0.478120D-25    0.421447D+00
   0   298    0.114618D-28    0.972578D-09    0.125724D-25    0.421447D+00
   0   299    0.278568D-29    0.616336D-09    0.959602D-27    0.421447D+00
   0   300    0.659227D-30    0.390566D-09    0.782255D-27    0.421447D+00
   0   301    0.165212D-30    0.247489D-09    0.133787D-27    0.421447D+00
   0   302    0.397196D-31    0.156822D-09    0.264655D-28    0.421447D+00
   0   303    0.965659D-32    0.993681D-10    0.961655D-29    0.421447D+00
   0   304    0.239501D-32    0.629620D-10    0.310011D-29    0.421447D+00
   0   305    0.589471D-33    0.398936D-10    0.205624D-30    0.421447D+00
   0   306    0.143982D-33    0.252767D-10    0.183445D-30    0.421447D+00
   0   307    0.339135D-34    0.160153D-10    0.460606D-31    0.421447D+00
   0   308    0.814669D-35    0.101471D-10    0.107578D-31    0.421447D+00
   0   309    0.199127D-35    0.642906D-11    0.990632D-33    0.421447D+00
   0   310    0.475337D-36    0.407333D-11    0.156523D-33    0.421447D+00
   0   311    0.113817D-36    0.258076D-11    0.476576D-34    0.421447D+00
   0   312    0.274933D-37    0.163510D-11    0.183332D-34    0.421447D+00
   0   313    0.664631D-38    0.103594D-11    0.680526D-35    0.421447D+00
   0   314    0.159461D-38    0.656336D-12    0.816178D-36    0.421447D+00
   0   315    0.387994D-39    0.415828D-12    0.223074D-36    0.421447D+00
   0   316    0.897178D-40    0.263450D-12    0.597915D-37    0.421447D+00
   0   317    0.218474D-40    0.166909D-12    0.207105D-37    0.421447D+00
   0   318    0.522633D-41    0.105745D-12    0.475363D-38    0.421447D+00
   0   319    0.126512D-41    0.669940D-13    0.497460D-39    0.421447D+00
   0   320    0.295076D-42    0.424432D-13    0.426238D-39    0.421447D+00
   0   321    0.717141D-43    0.268891D-13    0.449701D-40    0.421447D+00
   0   322    0.165799D-43    0.170349D-13    0.997224D-41    0.421447D+00
   0   323    0.387527D-44    0.107920D-13    0.268315D-41    0.421447D+00
   0   324    0.959295D-45    0.683685D-14    0.545785D-42    0.421447D+00
   0   325    0.221439D-45    0.433118D-14    0.983751D-43    0.421447D+00
   0   326    0.542390D-46    0.274379D-14    0.302171D-43    0.421447D+00
   0   327    0.127925D-46    0.173816D-14    0.680223D-44    0.421447D+00
   0   328    0.302943D-47    0.110109D-14    0.171336D-44    0.421447D+00
   0   329    0.744987D-48    0.697508D-15    0.693993D-45    0.421447D+00
   0   330    0.177361D-48    0.441844D-15    0.108678D-45    0.421447D+00
   0   331    0.424630D-49    0.279887D-15    0.448671D-46    0.421447D+00
   0   332    0.102435D-49    0.177292D-15    0.117646D-46    0.421447D+00
   0   333    0.242328D-50    0.112302D-15    0.169586D-47    0.421447D+00
   0   334    0.571708D-51    0.711345D-16    0.531445D-48    0.421447D+00
   0   335    0.137269D-51    0.450573D-16    0.135185D-48    0.421447D+00
   0   336    0.326542D-52    0.285392D-16    0.165107D-49    0.421447D+00
   0   337    0.755448D-53    0.180764D-16    0.681561D-50    0.421447D+00
   0   338    0.180981D-53    0.114491D-16    0.164352D-50    0.421447D+00
   0   339    0.434345D-54    0.725149D-17    0.254356D-51    0.421447D+00
   0   340    0.101890D-54    0.459276D-17    0.979938D-52    0.421447D+00
   0   341    0.243739D-55    0.290879D-17    0.142576D-52    0.421447D+00
   0   342    0.580466D-56    0.184223D-17    0.310755D-53    0.421447D+00
   0   343    0.139387D-56    0.116673D-17    0.166438D-53    0.421447D+00
   0   344    0.321084D-57    0.738900D-18    0.300935D-54    0.421447D+00
   0   345    0.747238D-58    0.467946D-18    0.344178D-55    0.421447D+00
   0   346    0.178091D-58    0.296346D-18    0.212723D-55    0.421447D+00
   0   347    0.421187D-59    0.187670D-18    0.542509D-56    0.421447D+00
   0   348    0.998863D-60    0.118846D-18    0.639783D-57    0.421447D+00
   0   349    0.241902D-60    0.752609D-19    0.130931D-57    0.421447D+00
   0   350    0.574963D-61    0.476593D-19    0.176705D-58    0.421447D+00
   0   351    0.136790D-61    0.301800D-19    0.159521D-58    0.421447D+00
   0   352    0.324039D-62    0.191111D-19    0.100595D-59    0.421447D+00
   0   353    0.759012D-63    0.121017D-19    0.104139D-59    0.421447D+00
   0   354    0.185185D-63    0.766308D-20    0.143612D-60    0.421447D+00
   0   355    0.425279D-64    0.485238D-20    0.503992D-61    0.421447D+00
   0   356    0.100801D-64    0.307257D-20    0.720321D-62    0.421447D+00
   0   357    0.235671D-65    0.194556D-20    0.147255D-62    0.421447D+00
   0   358    0.553312D-66    0.123192D-20    0.170489D-63    0.421447D+00
   0   359    0.130774D-66    0.780041D-21    0.999160D-64    0.421447D+00
   0   360    0.311067D-67    0.493911D-21    0.236921D-64    0.421447D+00
   0   361    0.716107D-68    0.312735D-21    0.615220D-65    0.421447D+00
   0   362    0.169879D-68    0.198016D-21    0.143780D-65    0.421447D+00
   0   363    0.405562D-69    0.125378D-21    0.439907D-66    0.421447D+00
   0   364    0.980649D-70    0.793856D-22    0.286976D-67    0.421447D+00
   0   365    0.226726D-70    0.502641D-22    0.216556D-67    0.421447D+00
   0   366    0.537704D-71    0.318252D-22    0.716930D-68    0.421447D+00
   0   367    0.126747D-71    0.201504D-22    0.108655D-68    0.421447D+00
   0   368    0.303677D-72    0.127583D-22    0.812702D-70    0.421447D+00
   0   369    0.728882D-73    0.807793D-23    0.100953D-69    0.421447D+00
   0   370    0.176451D-73    0.511453D-23    0.245134D-70    0.421447D+00
   0   371    0.406544D-74    0.323824D-23    0.121194D-71    0.421447D+00
   0   372    0.977533D-75    0.205027D-23    0.963813D-72    0.421447D+00
   0   373    0.219843D-75    0.129811D-23    0.335655D-72    0.421447D+00
   0   374    0.529257D-76    0.821882D-24    0.586202D-73    0.421447D+00
   0   375    0.125255D-76    0.520363D-24    0.181262D-73    0.421447D+00
   0   376    0.298428D-77    0.329459D-24    0.162143D-74    0.421447D+00
   0   377    0.680412D-78    0.208591D-24    0.102833D-74    0.421447D+00
   0   378    0.164120D-78    0.132064D-24    0.106519D-75    0.421447D+00
   0   379    0.389058D-79    0.836134D-25    0.325295D-76    0.421447D+00
   0   380    0.903630D-80    0.529375D-25    0.130699D-76    0.421447D+00
   0   381    0.219957D-80    0.335158D-25    0.214662D-77    0.421447D+00
   0   382    0.526594D-81    0.212194D-25    0.744650D-78    0.421447D+00
   0   383    0.122308D-81    0.134343D-25    0.150889D-78    0.421447D+00
   0   384    0.288978D-82    0.850538D-26    0.168724D-79    0.421447D+00
   0   385    0.677388D-83    0.538481D-26    0.710880D-80    0.421447D+00
   0   386    0.160952D-83    0.340913D-26    0.674438D-81    0.421447D+00
   0   387    0.376839D-84    0.215831D-26    0.375407D-81    0.421447D+00
   0   388    0.871081D-85    0.136640D-26    0.127284D-81    0.421447D+00
   0   389    0.203504D-85    0.865031D-27    0.264999D-82    0.421447D+00
   0   390    0.478817D-86    0.547603D-27    0.701058D-83    0.421447D+00
   0   391    0.117168D-86    0.346621D-27    0.123108D-83    0.421447D+00
   0   392    0.268750D-87    0.219349D-27    0.409882D-84    0.421447D+00
   0   393    0.644104D-88    0.138725D-27    0.807925D-85    0.421447D+00
   0   394    0.155468D-88    0.876032D-28    0.536296D-86    0.421447D+00
   0   395    0.365758D-89    0.551129D-28    0.188964D-86    0.421447D+00
   0   396    0.841407D-90    0.343445D-28    0.305486D-87    0.421447D+00
   0   397    0.201625D-90    0.208810D-28    0.216027D-87    0.421447D+00