variables =  "IG"  "JG"  "PHI"  "Temp."  "Latent_heat"  "mm"
ZONE  I=  401  J=  101
   0     0    0.100000D+01    0.925418D+00    0.000000D+00    0.183584D+00
   0     1    0.100000D+01    0.925418D+00    0.000000D+00    0.183584D+00
   0     2    0.100000D+01    0.925556D+00    0.000000D+00    0.183329D+00
   0     3    0.100000D+01    0.925833D+00    0.000000D+00    0.182819D+00
   0     4    0.100000D+01    0.926247D+00    0.000000D+00    0.182051D+00
   0     5    0.100000D+01    0.926798D+00    0.000000D+00    0.181026D+00
   0     6    0.100000D+01    0.927485D+00    0.000000D+00    0.179741D+00
   0     7    0.100000D+01    0.928306D+00    0.000000D+00    0.178194D+00
   0     8    0.100000D+01    0.929259D+00    0.000000D+00    0.176382D+00
   0     9    0.100000D+01    0.930343D+00    0.000000D+00    0.174302D+00
   0    10    0.100000D+01    0.931555D+00    0.000000D+00    0.171951D+00
   0    11    0.100000D+01    0.932893D+00    0.000000D+00    0.169324D+00
   0    12    0.100000D+01    0.934355D+00    0.000000D+00    0.166416D+00
   0    13    0.100000D+01    0.935938D+00    0.000000D+00    0.163224D+00
   0    14    0.100000D+01    0.937639D+00    0.000000D+00    0.159743D+00
   0    15    0.100000D+01    0.939455D+00    0.000000D+00    0.155967D+00
   0    16    0.100000D+01    0.941383D+00    0.000000D+00    0.151890D+00
   0    17    0.100000D+01    0.943420D+00    0.000000D+00    0.147508D+00
   0    18    0.100000D+01    0.945563D+00    0.000000D+00    0.142815D+00
   0    19    0.100000D+01    0.947809D+00    0.000000D+00    0.137804D+00
   0    20    0.100000D+01    0.950155D+00    0.000000D+00    0.132471D+00
   0    21    0.100000D+01    0.952598D+00    0.000000D+00    0.126811D+00
   0    22    0.100000D+01    0.955136D+00    0.000000D+00    0.120817D+00
   0    23    0.100000D+01    0.957765D+00    0.000000D+00    0.114486D+00
   0    24    0.100000D+01    0.960483D+00   -0.266454D-10    0.107813D+00
   0    25    0.100000D+01    0.963290D+00    0.386358D-09    0.100793D+00
   0    26    0.100000D+01    0.966182D+00    0.182521D-08    0.934227D-01
   0    27    0.100000D+01    0.969161D+00    0.552891D-08    0.856965D-01
   0    28    0.100000D+01    0.972227D+00   -0.345857D-07    0.776081D-01
   0    29    0.100000D+01    0.975383D+00    0.459339D-06    0.691475D-01
   0    30    0.100000D+01    0.978635D+00   -0.434619D-05    0.602990D-01
   0    31    0.100000D+01    0.981994D+00    0.118585D-04    0.510372D-01
   0    32    0.100000D+01    0.985475D+00    0.652726D-04    0.413204D-01
   0    33    0.999998D+00    0.989108D+00    0.981538D-03    0.310800D-01
   0    34    0.999985D+00    0.992938D+00    0.423549D-02    0.201973D-01
   0    35    0.999900D+00    0.997049D+00   -0.529495D-01    0.845350D-02
   0    36    0.999373D+00    0.100159D+01   -0.170545D+00   -0.456045D-02
   0    37    0.996160D+00    0.100690D+01    0.194970D-01   -0.197549D-01
   0    38    0.976923D+00    0.101334D+01    0.902879D+01   -0.381431D-01
   0    39    0.866695D+00    0.102235D+01    0.495037D+02   -0.622254D-01
   0    40    0.425374D+00    0.103110D+01    0.107349D+03   -0.856560D-01
   0    41    0.100658D+00    0.102660D+01    0.252872D+02   -0.724062D-01
   0    42    0.276319D-01    0.102213D+01   -0.133294D+02   -0.623215D-01
   0    43    0.114730D-01    0.101799D+01    0.277035D+01   -0.508976D-01
   0    44    0.850173D-02    0.101452D+01   -0.934046D+00   -0.413462D-01
   0    45    0.871644D-02    0.101207D+01   -0.468594D+01   -0.346298D-01
   0    46    0.936743D-02    0.100994D+01    0.411424D+01   -0.287683D-01
   0    47    0.102159D-01    0.100761D+01   -0.759845D-01   -0.222562D-01
   0    48    0.104577D-01    0.100689D+01   -0.196718D+01   -0.197892D-01
   0    49    0.107290D-01    0.100622D+01   -0.452197D+01   -0.175637D-01
   0    50    0.113066D-01    0.100522D+01    0.574942D+01   -0.148734D-01
   0    51    0.115232D-01    0.100395D+01   -0.152345D+01   -0.111581D-01
   0    52    0.116282D-01    0.100344D+01   -0.278810D+01   -0.945881D-02
   0    53    0.115289D-01    0.100269D+01    0.140907D+01   -0.708425D-02
   0    54    0.118848D-01    0.100238D+01   -0.624750D+01   -0.679278D-02
   0    55    0.121659D-01    0.100190D+01    0.383732D+01   -0.576721D-02
   0    56    0.124522D-01    0.100131D+01    0.638360D+01   -0.408140D-02
   0    57    0.125402D-01    0.100100D+01    0.678426D+01   -0.327741D-02
   0    58    0.129392D-01    0.100014D+01   -0.794138D+01   -0.100364D-02
   0    59    0.129705D-01    0.999517D+00    0.741462D+00    0.972424D-03
   0    60    0.129519D-01    0.999761D+00    0.676274D+01    0.280666D-03
   0    61    0.136000D-01    0.100071D+01   -0.734447D+01   -0.266646D-02
   0    62    0.136967D-01    0.100017D+01   -0.606777D+01   -0.416130D-03
   0    63    0.139141D-01    0.100018D+01   -0.152946D+00   -0.111475D-02
   0    64    0.137741D-01    0.999620D+00    0.483013D+01    0.938355D-03
   0    65    0.137792D-01    0.999628D+00   -0.653074D+00    0.179653D-02
   0    66    0.140097D-01    0.999427D+00   -0.518947D+01    0.225990D-02
   0    67    0.140183D-01    0.998337D+00   -0.561511D+01    0.506179D-02
   0    68    0.140930D-01    0.997826D+00   -0.691182D+01    0.628835D-02
   0    69    0.144390D-01    0.998729D+00    0.723684D+01    0.371002D-02
   0    70    0.145664D-01    0.998699D+00   -0.642019D+01    0.382959D-02
   0    71    0.143342D-01    0.997280D+00    0.768918D+01    0.739514D-02
   0    72    0.142562D-01    0.997448D+00    0.409268D+01    0.728602D-02
   0    73    0.144004D-01    0.996253D+00   -0.431713D+00    0.106322D-01
   0    74    0.143907D-01    0.996927D+00    0.650312D+01    0.911678D-02
   0    75    0.145816D-01    0.996601D+00   -0.444556D+01    0.950769D-02
   0    76    0.148435D-01    0.997556D+00   -0.102844D+00    0.732039D-02
   0    77    0.146881D-01    0.997509D+00   -0.459373D+01    0.678567D-02
   0    78    0.148384D-01    0.996997D+00   -0.373802D+01    0.814092D-02
   0    79    0.147125D-01    0.997807D+00   -0.434810D+01    0.672347D-02
   0    80    0.151912D-01    0.996346D+00    0.373109D+01    0.105600D-01
   0    81    0.151199D-01    0.997040D+00    0.606507D+01    0.843840D-02
   0    82    0.152949D-01    0.996912D+00   -0.532725D+01    0.886640D-02
   0    83    0.156732D-01    0.996189D+00   -0.405410D+01    0.105931D-01
   0    84    0.152443D-01    0.996754D+00   -0.720862D+01    0.918674D-02
   0    85    0.155226D-01    0.995986D+00    0.417065D+01    0.123110D-01
   0    86    0.152494D-01    0.996091D+00    0.758529D+00    0.107920D-01
   0    87    0.154099D-01    0.995597D+00   -0.160846D+01    0.125119D-01
   0    88    0.152372D-01    0.996677D+00    0.698229D+01    0.103584D-01
   0    89    0.150865D-01    0.996989D+00    0.766770D+01    0.824070D-02
   0    90    0.149454D-01    0.997296D+00   -0.273155D+01    0.748209D-02
   0    91    0.149395D-01    0.996554D+00    0.400456D+01    0.971654D-02
   0    92    0.153700D-01    0.997058D+00   -0.277081D+01    0.876780D-02
   0    93    0.156599D-01    0.995990D+00   -0.542920D+01    0.117684D-01
   0    94    0.155071D-01    0.996511D+00   -0.551608D+01    0.105499D-01
   0    95    0.151917D-01    0.995651D+00    0.210948D+01    0.118918D-01
   0    96    0.150735D-01    0.996828D+00    0.860226D+00    0.943007D-02
   0    97    0.154445D-01    0.997432D+00   -0.837645D+01    0.714953D-02
   0    98    0.155746D-01    0.996208D+00    0.465678D+01    0.103116D-01
   0    99    0.155714D-01    0.996819D+00    0.448899D+01    0.976458D-02
   0   100    0.154833D-01    0.996212D+00   -0.150213D+01    0.107423D-01
   0   101    0.155168D-01    0.995488D+00   -0.692468D+01    0.134437D-01
   0   102    0.155719D-01    0.996369D+00    0.377815D+01    0.108559D-01
   0   103    0.151147D-01    0.996137D+00   -0.111690D+01    0.113088D-01
   0   104    0.159083D-01    0.996763D+00   -0.590485D+01    0.966788D-02
   0   105    0.156925D-01    0.995186D+00    0.633877D+01    0.131687D-01
   0   106    0.157626D-01    0.995304D+00   -0.452498D+00    0.131326D-01
   0   107    0.154532D-01    0.995762D+00   -0.317782D+01    0.121877D-01
   0   108    0.153954D-01    0.996438D+00   -0.413064D+01    0.977384D-02
   0   109    0.154662D-01    0.997510D+00    0.216440D+01    0.699418D-02
   0   110    0.153854D-01    0.996557D+00   -0.317933D+01    0.101912D-01
   0   111    0.158449D-01    0.995510D+00    0.488013D+01    0.133653D-01
   0   112    0.152712D-01    0.994958D+00    0.390457D+01    0.140145D-01
   0   113    0.154797D-01    0.995763D+00    0.795591D+01    0.122715D-01
   0   114    0.158491D-01    0.995547D+00   -0.254619D+00    0.130952D-01
   0   115    0.158577D-01    0.995562D+00   -0.259152D+01    0.130580D-01
   0   116    0.158781D-01    0.995862D+00    0.817824D+01    0.114493D-01
   0   117    0.156024D-01    0.996410D+00   -0.741648D+01    0.102943D-01
   0   118    0.151864D-01    0.996684D+00    0.370925D+01    0.875413D-02
   0   119    0.152635D-01    0.996408D+00    0.656044D+01    0.100031D-01
   0   120    0.156910D-01    0.996627D+00   -0.698170D+01    0.952802D-02
   0   121    0.151875D-01    0.995661D+00   -0.242422D+01    0.116115D-01
   0   122    0.149244D-01    0.996280D+00    0.932775D+01    0.113998D-01
   0   123    0.155403D-01    0.995537D+00   -0.717556D+01    0.125238D-01
   0   124    0.157513D-01    0.996664D+00   -0.662734D+01    0.955563D-02
   0   125    0.155953D-01    0.995786D+00   -0.156029D+01    0.127112D-01
   0   126    0.157080D-01    0.995703D+00   -0.728066D+01    0.130810D-01
   0   127    0.151496D-01    0.996194D+00   -0.738044D+01    0.105065D-01
   0   128    0.152816D-01    0.995783D+00   -0.461504D+01    0.125957D-01
   0   129    0.152337D-01    0.996022D+00   -0.679339D+01    0.111187D-01
   0   130    0.153343D-01    0.996644D+00   -0.260327D+01    0.881626D-02
   0   131    0.152381D-01    0.997410D+00    0.201028D+01    0.744950D-02
   0   132    0.153955D-01    0.997202D+00   -0.512837D+01    0.816016D-02
   0   133    0.150679D-01    0.996761D+00   -0.698142D+00    0.949027D-02
   0   134    0.158910D-01    0.997637D+00   -0.522786D+01    0.736543D-02
   0   135    0.157384D-01    0.997937D+00    0.591580D+01    0.664869D-02
   0   136    0.155359D-01    0.996139D+00   -0.638143D+00    0.116989D-01
   0   137    0.152710D-01    0.995793D+00   -0.204404D+01    0.120966D-01
   0   138    0.150653D-01    0.996170D+00    0.737437D+01    0.116885D-01
   0   139    0.153072D-01    0.996011D+00   -0.372717D+01    0.116077D-01
   0   140    0.152560D-01    0.996370D+00   -0.644913D+01    0.949717D-02
   0   141    0.152632D-01    0.994982D+00    0.321378D+01    0.137748D-01
   0   142    0.155619D-01    0.995149D+00   -0.428345D+01    0.134908D-01
   0   143    0.153153D-01    0.995583D+00    0.610529D+01    0.124148D-01
   0   144    0.155552D-01    0.995979D+00    0.474492D+01    0.115531D-01
   0   145    0.150694D-01    0.996456D+00   -0.240394D+01    0.945381D-02
   0   146    0.154885D-01    0.996318D+00    0.753227D+01    0.109372D-01
   0   147    0.148073D-01    0.996485D+00    0.688692D+01    0.107949D-01
   0   148    0.151554D-01    0.997073D+00   -0.103758D+01    0.790008D-02
   0   149    0.155848D-01    0.997417D+00   -0.475271D+01    0.710014D-02
   0   150    0.153026D-01    0.997182D+00    0.787040D+01    0.742411D-02
   0   151    0.154011D-01    0.997618D+00   -0.721317D+01    0.668830D-02
   0   152    0.152278D-01    0.996737D+00    0.329587D+01    0.908529D-02
   0   153    0.150802D-01    0.997372D+00    0.664054D+01    0.759008D-02
   0   154    0.154979D-01    0.995846D+00   -0.961503D+01    0.118429D-01
   0   155    0.152655D-01    0.995418D+00   -0.750004D+01    0.126835D-01
   0   156    0.150372D-01    0.996168D+00    0.207684D+01    0.111510D-01
   0   157    0.151594D-01    0.994602D+00    0.452892D+01    0.152743D-01
   0   158    0.155315D-01    0.995387D+00    0.536875D+01    0.123578D-01
   0   159    0.154855D-01    0.994874D+00    0.296811D+00    0.148726D-01
   0   160    0.152921D-01    0.997134D+00   -0.295453D+01    0.834314D-02
   0   161    0.151410D-01    0.998200D+00   -0.216709D+01    0.549005D-02
   0   162    0.150002D-01    0.996813D+00   -0.336495D+01    0.970652D-02
   0   163    0.153839D-01    0.996525D+00   -0.505040D+01    0.102857D-01
   0   164    0.155983D-01    0.997019D+00    0.991921D+00    0.898995D-02
   0   165    0.152500D-01    0.996877D+00   -0.761089D+01    0.891518D-02
   0   166    0.154059D-01    0.997256D+00   -0.289958D+01    0.815771D-02
   0   167    0.149192D-01    0.998210D+00   -0.573125D+01    0.560470D-02
   0   168    0.148280D-01    0.997180D+00    0.696359D+01    0.805101D-02
   0   169    0.151399D-01    0.996845D+00    0.881994D+01    0.928714D-02
   0   170    0.147565D-01    0.995738D+00   -0.799741D+01    0.125212D-01
   0   171    0.149347D-01    0.997247D+00   -0.140014D+01    0.787519D-02
   0   172    0.148896D-01    0.996283D+00    0.172825D+01    0.998558D-02
   0   173    0.144514D-01    0.995857D+00    0.359944D+01    0.115548D-01
   0   174    0.146680D-01    0.996080D+00   -0.722715D+01    0.111424D-01
   0   175    0.147224D-01    0.997260D+00    0.174255D+01    0.840856D-02
   0   176    0.149803D-01    0.996654D+00   -0.237186D+01    0.970683D-02
   0   177    0.147499D-01    0.996676D+00   -0.785695D+01    0.916897D-02
   0   178    0.148667D-01    0.998392D+00    0.829750D+01    0.430682D-02
   0   179    0.144535D-01    0.998061D+00    0.510753D+01    0.586235D-02
   0   180    0.148680D-01    0.996121D+00   -0.253575D+01    0.105636D-01
   0   181    0.147473D-01    0.996628D+00    0.384561D+01    0.899399D-02
   0   182    0.152590D-01    0.997891D+00    0.513507D+01    0.653242D-02
   0   183    0.147163D-01    0.996122D+00    0.708188D+01    0.108550D-01
   0   184    0.146968D-01    0.996581D+00   -0.251824D+01    0.968604D-02
   0   185    0.142323D-01    0.996628D+00   -0.702725D+01    0.946563D-02
   0   186    0.143032D-01    0.996847D+00   -0.357300D+01    0.932785D-02
   0   187    0.149049D-01    0.996751D+00   -0.569386D+01    0.906509D-02
   0   188    0.150608D-01    0.997189D+00   -0.640569D+01    0.800790D-02
   0   189    0.148163D-01    0.997058D+00    0.128457D+01    0.795355D-02
   0   190    0.142652D-01    0.997984D+00    0.330540D+01    0.608470D-02
   0   191    0.145551D-01    0.997650D+00    0.271743D+01    0.626061D-02
   0   192    0.148744D-01    0.997231D+00   -0.681489D+01    0.782416D-02
   0   193    0.147752D-01    0.997188D+00   -0.464376D+01    0.741521D-02
   0   194    0.143593D-01    0.997248D+00   -0.822723D+00    0.737018D-02
   0   195    0.146343D-01    0.996774D+00    0.200196D+01    0.878450D-02
   0   196    0.147999D-01    0.997359D+00    0.707867D+01    0.772302D-02
   0   197    0.147747D-01    0.996501D+00    0.290816D+01    0.941977D-02
   0   198    0.147973D-01    0.997692D+00    0.753765D+01    0.647328D-02
   0   199    0.147019D-01    0.997830D+00    0.129667D+01    0.687249D-02
   0   200    0.148899D-01    0.997334D+00   -0.297887D+01    0.765525D-02
   0   201    0.147309D-01    0.997411D+00   -0.149999D+01    0.774962D-02
   0   202    0.147119D-01    0.997742D+00    0.629958D+01    0.584815D-02
   0   203    0.146352D-01    0.998394D+00    0.764529D+01    0.490331D-02
   0   204    0.147159D-01    0.998356D+00   -0.667055D+00    0.530896D-02
   0   205    0.148593D-01    0.998062D+00    0.581142D+01    0.581184D-02
   0   206    0.152071D-01    0.997985D+00   -0.428613D+01    0.618289D-02
   0   207    0.146727D-01    0.998356D+00    0.461510D+01    0.414328D-02
   0   208    0.145321D-01    0.999208D+00    0.296187D+01    0.275497D-02
   0   209    0.145794D-01    0.998813D+00    0.152139D+01    0.381961D-02
   0   210    0.145246D-01    0.998482D+00   -0.776836D+01    0.502638D-02
   0   211    0.148369D-01    0.998152D+00    0.269999D+01    0.543504D-02
   0   212    0.149191D-01    0.998463D+00   -0.656344D+01    0.407626D-02
   0   213    0.144468D-01    0.998083D+00    0.605904D+01    0.582548D-02
   0   214    0.140068D-01    0.998372D+00   -0.195060D+01    0.495108D-02
   0   215    0.141153D-01    0.999222D+00   -0.386872D+01    0.240762D-02
   0   216    0.136682D-01    0.999262D+00    0.717375D+00    0.264534D-02
   0   217    0.140677D-01    0.998443D+00   -0.684993D+01    0.424761D-02
   0   218    0.143083D-01    0.998809D+00   -0.164460D+01    0.352253D-02
   0   219    0.143072D-01    0.998569D+00   -0.724385D+01    0.342530D-02
   0   220    0.142923D-01    0.998278D+00    0.821091D+01    0.443096D-02
   0   221    0.143685D-01    0.997617D+00   -0.211071D+01    0.652992D-02
   0   222    0.142060D-01    0.998198D+00   -0.386519D+01    0.498765D-02
   0   223    0.140215D-01    0.997626D+00    0.706219D+01    0.659831D-02
   0   224    0.138143D-01    0.998162D+00    0.665157D+01    0.594404D-02
   0   225    0.138327D-01    0.997915D+00   -0.632707D+01    0.595354D-02
   0   226    0.142073D-01    0.997937D+00   -0.755279D+01    0.673289D-02
   0   227    0.141932D-01    0.998223D+00    0.704151D+01    0.491168D-02
   0   228    0.142172D-01    0.998201D+00   -0.317023D+01    0.503410D-02
   0   229    0.141314D-01    0.999304D+00   -0.643216D+01    0.241908D-02
   0   230    0.141983D-01    0.999132D+00   -0.335189D+01    0.216694D-02
   0   231    0.142986D-01    0.998542D+00    0.529237D+01    0.417820D-02
   0   232    0.144527D-01    0.996389D+00   -0.129075D+01    0.987982D-02
   0   233    0.142462D-01    0.997647D+00    0.781074D+01    0.644428D-02
   0   234    0.144172D-01    0.998511D+00    0.602120D+01    0.389421D-02
   0   235    0.146036D-01    0.998190D+00    0.712686D+01    0.492264D-02
   0   236    0.139048D-01    0.998047D+00    0.187575D+01    0.618591D-02
   0   237    0.141138D-01    0.996960D+00    0.824515D+01    0.832515D-02
   0   238    0.143782D-01    0.997697D+00    0.216460D+01    0.607390D-02
   0   239    0.144896D-01    0.998634D+00   -0.233437D+01    0.398003D-02
   0   240    0.141766D-01    0.998859D+00    0.188070D+01    0.294922D-02
   0   241    0.142550D-01    0.997961D+00   -0.438169D+01    0.564140D-02
   0   242    0.143104D-01    0.998669D+00    0.861945D+00    0.379530D-02
   0   243    0.143911D-01    0.998859D+00    0.795012D+01    0.327194D-02
   0   244    0.142043D-01    0.998576D+00    0.557612D+01    0.485094D-02
   0   245    0.143889D-01    0.998229D+00   -0.240234D+01    0.542855D-02
   0   246    0.140717D-01    0.996858D+00    0.303093D+01    0.945049D-02
   0   247    0.143008D-01    0.997705D+00   -0.582410D+01    0.620864D-02
   0   248    0.143669D-01    0.997910D+00    0.543175D+01    0.563780D-02
   0   249    0.140393D-01    0.998588D+00   -0.570471D+01    0.379382D-02
   0   250    0.141853D-01    0.998856D+00    0.373901D+01    0.291083D-02
   0   251    0.141145D-01    0.998582D+00    0.691999D+01    0.402468D-02
   0   252    0.140610D-01    0.997558D+00    0.131040D+01    0.691161D-02
   0   253    0.141088D-01    0.997942D+00    0.733373D+01    0.568379D-02
   0   254    0.142811D-01    0.998239D+00   -0.203801D+01    0.442730D-02
   0   255    0.138860D-01    0.998627D+00    0.125494D+01    0.346313D-02
   0   256    0.142803D-01    0.999354D+00    0.407126D+01    0.182322D-02
   0   257    0.141491D-01    0.999193D+00    0.514186D+01    0.217372D-02
   0   258    0.139108D-01    0.998980D+00    0.106856D+01    0.310958D-02
   0   259    0.137827D-01    0.999343D+00    0.410361D+01    0.150983D-02
   0   260    0.136288D-01    0.998727D+00   -0.457424D+01    0.378701D-02
   0   261    0.137374D-01    0.999064D+00   -0.416315D+01    0.232678D-02
   0   262    0.135309D-01    0.998800D+00   -0.570292D+01    0.335976D-02
   0   263    0.138730D-01    0.998307D+00    0.255235D+01    0.515245D-02
   0   264    0.139290D-01    0.999229D+00   -0.629353D+01    0.270977D-02
   0   265    0.137267D-01    0.999785D+00    0.881109D+01    0.116765D-02
   0   266    0.138105D-01    0.998623D+00   -0.746479D+01    0.377716D-02
   0   267    0.136971D-01    0.999391D+00    0.173575D+01    0.238545D-02
   0   268    0.140616D-01    0.998687D+00   -0.496399D+00    0.411045D-02
   0   269    0.142178D-01    0.998941D+00    0.276108D+01    0.310961D-02
   0   270    0.141402D-01    0.998013D+00    0.214380D+00    0.581908D-02
   0   271    0.141427D-01    0.998884D+00   -0.844935D+01    0.333560D-02
   0   272    0.142360D-01    0.998585D+00    0.348991D+01    0.435580D-02
   0   273    0.143202D-01    0.997953D+00   -0.634654D+00    0.624872D-02
   0   274    0.141093D-01    0.997428D+00    0.379955D+01    0.712891D-02
   0   275    0.142427D-01    0.997948D+00    0.117650D+01    0.544572D-02
   0   276    0.142453D-01    0.997505D+00   -0.147142D+01    0.666943D-02
   0   277    0.145146D-01    0.997306D+00    0.607757D+01    0.721068D-02
   0   278    0.144925D-01    0.998338D+00    0.420498D+01    0.524876D-02
   0   279    0.141169D-01    0.999676D+00    0.649959D+01    0.198909D-03
   0   280    0.143544D-01    0.999264D+00   -0.484179D+01    0.265112D-02
   0   281    0.140943D-01    0.998549D+00   -0.787848D+00    0.404537D-02
   0   282    0.140290D-01    0.998252D+00    0.824332D+01    0.485736D-02
   0   283    0.144895D-01    0.998684D+00   -0.733204D+01    0.293829D-02
   0   284    0.143284D-01    0.997358D+00    0.553764D+01    0.758210D-02
   0   285    0.146161D-01    0.997458D+00    0.521688D+01    0.787840D-02
   0   286    0.151894D-01    0.995787D+00   -0.838232D+01    0.113031D-01
   0   287    0.150565D-01    0.995563D+00   -0.292065D+00    0.129998D-01
   0   288    0.156524D-01    0.993070D+00    0.215420D+01    0.207051D-01
   0   289    0.155279D-01    0.991776D+00   -0.342095D+01    0.243226D-01
   0   290    0.162326D-01    0.990260D+00   -0.788789D+01    0.282568D-01
   0   291    0.167956D-01    0.988322D+00   -0.248665D+01    0.337745D-01
   0   292    0.184723D-01    0.984619D+00    0.419311D+00    0.440672D-01
   0   293    0.202163D-01    0.976246D+00   -0.453816D+01    0.667250D-01
   0   294    0.235561D-01    0.962159D+00    0.866962D+01    0.103274D+00
   0   295    0.273754D-01    0.941130D+00   -0.176105D+02    0.152545D+00
   0   296    0.284605D-01    0.909797D+00   -0.843140D+01    0.210037D+00
   0   297    0.255013D-01    0.857484D+00   -0.104577D+01    0.274792D+00
   0   298    0.186219D-01    0.782931D+00    0.110905D+02    0.326512D+00
   0   299    0.106770D-01    0.686594D+00    0.429050D+01    0.361688D+00
   0   300    0.512197D-02    0.577573D+00    0.251533D+01    0.383491D+00
   0   301    0.213447D-02    0.468357D+00    0.229458D+01    0.396790D+00
   0   302    0.794802D-03    0.367718D+00    0.778886D+00    0.405096D+00
   0   303    0.288027D-03    0.280887D+00    0.257948D+00    0.410438D+00
   0   304    0.969891D-04    0.209509D+00    0.128275D+00    0.413965D+00
   0   305    0.330992D-04    0.153073D+00    0.299540D-01    0.416340D+00
   0   306    0.106607D-04    0.109844D+00    0.495856D-02    0.417958D+00
   0   307    0.343085D-05    0.775934D-01    0.340729D-02    0.419068D+00
   0   308    0.106281D-05    0.540622D-01    0.526623D-03    0.419830D+00
   0   309    0.327262D-06    0.372164D-01    0.268809D-03    0.420353D+00
   0   310    0.951253D-07    0.253516D-01    0.559323D-04    0.420711D+00
   0   311    0.282918D-07    0.171117D-01    0.379514D-04    0.420954D+00
   0   312    0.821691D-08    0.114580D-01    0.924782D-05    0.421119D+00
   0   313    0.236666D-08    0.761921D-02    0.265221D-05    0.421230D+00
   0   314    0.684075D-09    0.503602D-02    0.924601D-06    0.421304D+00
   0   315    0.205843D-09    0.331122D-02    0.804270D-07    0.421353D+00
   0   316    0.625983D-10    0.216726D-02    0.818052D-07    0.421386D+00
   0   317    0.192062D-10    0.141292D-02    0.254452D-07    0.421407D+00
   0   318    0.569684D-11    0.917969D-03    0.642397D-08    0.421421D+00
   0   319    0.173346D-11    0.594622D-03    0.502478D-09    0.421430D+00
   0   320    0.503542D-12    0.384168D-03    0.208192D-09    0.421436D+00
   0   321    0.144440D-12    0.247635D-03    0.599583D-10    0.421440D+00
   0   322    0.419654D-13    0.159308D-03    0.325978D-10    0.421443D+00
   0   323    0.119632D-13    0.102306D-03    0.473424D-11    0.421444D+00
   0   324    0.327847D-14    0.655990D-04    0.300432D-11    0.421445D+00
   0   325    0.926556D-15    0.420050D-04    0.101304D-11    0.421446D+00
   0   326    0.251409D-15    0.268647D-04    0.744216D-13    0.421446D+00
   0   327    0.696348D-16    0.171631D-04    0.511845D-13    0.421447D+00
   0   328    0.188993D-16    0.109546D-04    0.874389D-14    0.421447D+00
   0   329    0.505483D-17    0.698593D-05    0.518126D-14    0.421447D+00
   0   330    0.133270D-17    0.445164D-05    0.767988D-15    0.421447D+00
   0   331    0.356409D-18    0.283477D-05    0.119884D-15    0.421447D+00
   0   332    0.905588D-19    0.180404D-05    0.131896D-15    0.421447D+00
   0   333    0.237669D-19    0.114744D-05    0.720673D-17    0.421447D+00
   0   334    0.597692D-20    0.729455D-06    0.394067D-17    0.421447D+00
   0   335    0.154003D-20    0.463518D-06    0.180506D-17    0.421447D+00
   0   336    0.396900D-21    0.294412D-06    0.439263D-18    0.421447D+00
   0   337    0.101297D-21    0.186931D-06    0.947830D-19    0.421447D+00
   0   338    0.259739D-22    0.118648D-06    0.226040D-19    0.421447D+00
   0   339    0.642390D-23    0.752842D-07    0.523504D-20    0.421447D+00
   0   340    0.158725D-23    0.477559D-07    0.102850D-20    0.421447D+00
   0   341    0.390480D-24    0.302859D-07    0.205743D-21    0.421447D+00
   0   342    0.997568D-25    0.192023D-07    0.713846D-22    0.421447D+00
   0   343    0.253721D-25    0.121724D-07    0.749026D-23    0.421447D+00
   0   344    0.630964D-26    0.771466D-08    0.458868D-23    0.421447D+00
   0   345    0.153872D-26    0.488858D-08    0.540272D-24    0.421447D+00
   0   346    0.381846D-27    0.309728D-08    0.375645D-24    0.421447D+00
   0   347    0.941957D-28    0.196209D-08    0.105706D-24    0.421447D+00
   0   348    0.237143D-28    0.124280D-08    0.591215D-26    0.421447D+00
   0   349    0.572994D-29    0.787103D-09    0.513196D-26    0.421447D+00
   0   350    0.139374D-29    0.498445D-09    0.651323D-27    0.421447D+00
   0   351    0.341258D-30    0.315618D-09    0.902331D-28    0.421447D+00
   0   352    0.832274D-31    0.199834D-09    0.257000D-28    0.421447D+00
   0   353    0.200380D-31    0.126515D-09    0.132089D-28    0.421447D+00
   0   354    0.491310D-32    0.800910D-10    0.280663D-29    0.421447D+00
   0   355    0.117386D-32    0.506988D-10    0.472593D-30    0.421447D+00
   0   356    0.289498D-33    0.320913D-10    0.390364D-30    0.421447D+00
   0   357    0.716788D-34    0.203120D-10    0.382807D-31    0.421447D+00
   0   358    0.172030D-34    0.128558D-10    0.218958D-31    0.421447D+00
   0   359    0.413050D-35    0.813628D-11    0.430839D-32    0.421447D+00
   0   360    0.102952D-35    0.514916D-11    0.346726D-33    0.421447D+00
   0   361    0.246751D-36    0.325861D-11    0.106473D-33    0.421447D+00
   0   362    0.585502D-37    0.206213D-11    0.372641D-34    0.421447D+00
   0   363    0.141464D-37    0.130493D-11    0.474266D-35    0.421447D+00
   0   364    0.340080D-38    0.825750D-12    0.423617D-35    0.421447D+00
   0   365    0.817316D-39    0.522519D-12    0.110298D-35    0.421447D+00
   0   366    0.193760D-39    0.330635D-12    0.831594D-37    0.421447D+00
   0   367    0.472425D-40    0.209213D-12    0.399452D-37    0.421447D+00
   0   368    0.116691D-40    0.132381D-12    0.341330D-38    0.421447D+00
   0   369    0.276101D-41    0.837644D-13    0.150724D-38    0.421447D+00
   0   370    0.667304D-42    0.530018D-13    0.719113D-39    0.421447D+00
   0   371    0.156412D-42    0.335368D-13    0.149265D-39    0.421447D+00
   0   372    0.373546D-43    0.212203D-13    0.443046D-40    0.421447D+00
   0   373    0.896917D-44    0.134272D-13    0.740863D-41    0.421447D+00
   0   374    0.214039D-44    0.849610D-14    0.131683D-41    0.421447D+00
   0   375    0.501860D-45    0.537598D-14    0.234461D-42    0.421447D+00
   0   376    0.117736D-45    0.340173D-14    0.592381D-43    0.421447D+00
   0   377    0.284488D-46    0.215252D-14    0.230132D-43    0.421447D+00
   0   378    0.672993D-47    0.136208D-14    0.289951D-44    0.421447D+00
   0   379    0.156585D-47    0.861912D-15    0.196324D-44    0.421447D+00
   0   380    0.381863D-48    0.545420D-15    0.117238D-45    0.421447D+00
   0   381    0.900852D-49    0.345150D-15    0.891192D-46    0.421447D+00
   0   382    0.218254D-49    0.218421D-15    0.128085D-46    0.421447D+00
   0   383    0.528373D-50    0.138226D-15    0.324689D-47    0.421447D+00
   0   384    0.127686D-50    0.874776D-16    0.415676D-48    0.421447D+00
   0   385    0.313417D-51    0.553622D-16    0.255259D-48    0.421447D+00
   0   386    0.747854D-52    0.350382D-16    0.491703D-49    0.421447D+00
   0   387    0.176189D-52    0.221759D-16    0.578585D-50    0.421447D+00
   0   388    0.401345D-53    0.140355D-16    0.177376D-50    0.421447D+00
   0   389    0.946140D-54    0.888350D-17    0.132228D-50    0.421447D+00
   0   390    0.226178D-54    0.562257D-17    0.304553D-51    0.421447D+00
   0   391    0.529279D-55    0.355843D-17    0.661425D-52    0.421447D+00
   0   392    0.125469D-55    0.225160D-17    0.178613D-52    0.421447D+00
   0   393    0.296301D-56    0.142389D-17    0.242911D-53    0.421447D+00
   0   394    0.710743D-57    0.899140D-18    0.720832D-54    0.421447D+00
   0   395    0.168939D-57    0.565667D-18    0.475456D-55    0.421447D+00
   0   396    0.403527D-58    0.352515D-18    0.325030D-55    0.421447D+00
   0   397    0.927720D-59    0.214335D-18    0.101047D-55    0.421447D+00