variables =  "IG"  "JG"  "PHI"  "Temp."  "Latent_heat"  "mm"
ZONE  I=  401  J=  101
   0     0    0.100000D+01    0.929510D+00    0.000000D+00    0.175903D+00
   0     1    0.100000D+01    0.929510D+00    0.000000D+00    0.175903D+00
   0     2    0.100000D+01    0.929638D+00    0.000000D+00    0.175658D+00
   0     3    0.100000D+01    0.929894D+00    0.000000D+00    0.175166D+00
   0     4    0.100000D+01    0.930278D+00    0.000000D+00    0.174428D+00
   0     5    0.100000D+01    0.930788D+00    0.000000D+00    0.173442D+00
   0     6    0.100000D+01    0.931424D+00    0.000000D+00    0.172207D+00
   0     7    0.100000D+01    0.932184D+00    0.000000D+00    0.170721D+00
   0     8    0.100000D+01    0.933067D+00    0.000000D+00    0.168981D+00
   0     9    0.100000D+01    0.934071D+00    0.000000D+00    0.166985D+00
   0    10    0.100000D+01    0.935194D+00    0.000000D+00    0.164730D+00
   0    11    0.100000D+01    0.936435D+00    0.000000D+00    0.162214D+00
   0    12    0.100000D+01    0.937790D+00    0.000000D+00    0.159432D+00
   0    13    0.100000D+01    0.939257D+00    0.000000D+00    0.156381D+00
   0    14    0.100000D+01    0.940834D+00    0.000000D+00    0.153057D+00
   0    15    0.100000D+01    0.942518D+00    0.000000D+00    0.149457D+00
   0    16    0.100000D+01    0.944307D+00    0.000000D+00    0.145577D+00
   0    17    0.100000D+01    0.946197D+00    0.000000D+00    0.141411D+00
   0    18    0.100000D+01    0.948185D+00    0.000000D+00    0.136956D+00
   0    19    0.100000D+01    0.950270D+00    0.000000D+00    0.132207D+00
   0    20    0.100000D+01    0.952449D+00    0.000000D+00    0.127159D+00
   0    21    0.100000D+01    0.954720D+00    0.000000D+00    0.121807D+00
   0    22    0.100000D+01    0.957081D+00    0.000000D+00    0.116145D+00
   0    23    0.100000D+01    0.959531D+00    0.000000D+00    0.110166D+00
   0    24    0.100000D+01    0.962068D+00    0.133227D-10    0.103864D+00
   0    25    0.100000D+01    0.964695D+00    0.799361D-10    0.972302D-01
   0    26    0.100000D+01    0.967410D+00   -0.666134D-10    0.902558D-01
   0    27    0.100000D+01    0.970216D+00    0.317080D-08    0.829303D-01
   0    28    0.100000D+01    0.973115D+00   -0.174660D-07    0.752417D-01
   0    29    0.100000D+01    0.976112D+00    0.136851D-06    0.671761D-01
   0    30    0.100000D+01    0.979212D+00   -0.115572D-05    0.587171D-01
   0    31    0.100000D+01    0.982423D+00    0.667689D-05    0.498442D-01
   0    32    0.100000D+01    0.985757D+00   -0.118692D-06    0.405309D-01
   0    33    0.999999D+00    0.989228D+00    0.550708D-04    0.307408D-01
   0    34    0.999996D+00    0.992858D+00   -0.421856D-03    0.204226D-01
   0    35    0.999974D+00    0.996682D+00    0.410852D-02    0.949944D-02
   0    36    0.999836D+00    0.100075D+01   -0.559804D-01   -0.215778D-02
   0    37    0.998983D+00    0.100516D+01   -0.295136D+00   -0.147755D-01
   0    38    0.993944D+00    0.101013D+01    0.380964D+01   -0.289080D-01
   0    39    0.964496D+00    0.101616D+01    0.895025D+01   -0.457132D-01
   0    40    0.807862D+00    0.102294D+01    0.183779D+02   -0.656844D-01
   0    41    0.269915D+00    0.102559D+01   -0.757425D+02   -0.724357D-01
   0    42    0.639453D-01    0.102525D+01   -0.359912D+02   -0.711298D-01
   0    43    0.191126D-01    0.102169D+01   -0.276020D+01   -0.606183D-01
   0    44    0.944040D-02    0.101760D+01   -0.574440D+00   -0.498154D-01
   0    45    0.804206D-02    0.101369D+01   -0.229903D+01   -0.387893D-01
   0    46    0.862703D-02    0.101023D+01    0.281643D+01   -0.289741D-01
   0    47    0.945449D-02    0.100793D+01   -0.234743D+01   -0.227330D-01
   0    48    0.100691D-01    0.100701D+01    0.565553D+01   -0.195141D-01
   0    49    0.103826D-01    0.100633D+01   -0.200315D+01   -0.185869D-01
   0    50    0.106475D-01    0.100569D+01    0.492470D+01   -0.157101D-01
   0    51    0.112241D-01    0.100450D+01   -0.675745D+01   -0.126774D-01
   0    52    0.115512D-01    0.100340D+01   -0.618633D+00   -0.968406D-02
   0    53    0.115361D-01    0.100258D+01   -0.363761D+01   -0.735584D-02
   0    54    0.120137D-01    0.100227D+01   -0.413859D+01   -0.715930D-02
   0    55    0.120195D-01    0.100184D+01   -0.625610D+01   -0.535110D-02
   0    56    0.120964D-01    0.100212D+01   -0.530883D+01   -0.601070D-02
   0    57    0.125423D-01    0.100071D+01   -0.338647D+01   -0.133684D-02
   0    58    0.126906D-01    0.100076D+01   -0.167821D+01   -0.158275D-02
   0    59    0.128253D-01    0.100081D+01    0.357411D+01   -0.186939D-02
   0    60    0.124355D-01    0.100068D+01    0.473249D+01   -0.251127D-02
   0    61    0.129257D-01    0.999338D+00   -0.856501D+00    0.174497D-02
   0    62    0.133341D-01    0.100077D+01   -0.202029D+01   -0.197364D-02
   0    63    0.136099D-01    0.100000D+01    0.117617D+01   -0.141695D-03
   0    64    0.140013D-01    0.999373D+00   -0.921820D+01    0.256508D-02
   0    65    0.139014D-01    0.100019D+01    0.333208D+01   -0.355534D-03
   0    66    0.140315D-01    0.999865D+00    0.176102D+01    0.198278D-03
   0    67    0.140824D-01    0.998554D+00    0.716262D+01    0.486466D-02
   0    68    0.141841D-01    0.997533D+00   -0.873663D+01    0.652318D-02
   0    69    0.135904D-01    0.997459D+00   -0.854629D+00    0.759064D-02
   0    70    0.145432D-01    0.997448D+00   -0.607551D+00    0.788644D-02
   0    71    0.143792D-01    0.997201D+00   -0.525268D+01    0.805977D-02
   0    72    0.145673D-01    0.996856D+00    0.816521D+01    0.881394D-02
   0    73    0.149548D-01    0.996669D+00    0.716056D+01    0.990017D-02
   0    74    0.147938D-01    0.996298D+00    0.686058D+01    0.101938D-01
   0    75    0.148776D-01    0.996888D+00   -0.243531D+01    0.917455D-02
   0    76    0.147030D-01    0.997810D+00    0.797915D+01    0.646077D-02
   0    77    0.149526D-01    0.998029D+00   -0.359109D+01    0.544795D-02
   0    78    0.151378D-01    0.997150D+00    0.293035D+01    0.872018D-02
   0    79    0.148305D-01    0.996921D+00    0.495567D+00    0.911066D-02
   0    80    0.147862D-01    0.996050D+00    0.986351D+00    0.117398D-01
   0    81    0.149195D-01    0.996034D+00    0.384676D+00    0.119127D-01
   0    82    0.150204D-01    0.996507D+00   -0.266144D+01    0.909710D-02
   0    83    0.150553D-01    0.996369D+00   -0.412552D+01    0.963891D-02
   0    84    0.151998D-01    0.995983D+00   -0.133852D+01    0.118689D-01
   0    85    0.156248D-01    0.996255D+00   -0.856266D+00    0.102504D-01
   0    86    0.150828D-01    0.995809D+00   -0.782604D+01    0.115440D-01
   0    87    0.149742D-01    0.996755D+00   -0.657668D+01    0.933643D-02
   0    88    0.149652D-01    0.996695D+00    0.646893D+01    0.997515D-02
   0    89    0.153218D-01    0.996123D+00   -0.343321D+01    0.105805D-01
   0    90    0.157785D-01    0.995984D+00    0.231236D+01    0.108509D-01
   0    91    0.155395D-01    0.996354D+00   -0.533027D+01    0.990902D-02
   0    92    0.153616D-01    0.997330D+00   -0.206007D+01    0.823067D-02
   0    93    0.153101D-01    0.996752D+00   -0.181529D+01    0.942602D-02
   0    94    0.153544D-01    0.996652D+00    0.590369D+00    0.945729D-02
   0    95    0.154610D-01    0.996314D+00    0.492671D+01    0.109875D-01
   0    96    0.153328D-01    0.996177D+00    0.729291D+00    0.111879D-01
   0    97    0.155968D-01    0.996238D+00   -0.653573D+01    0.116031D-01
   0    98    0.157775D-01    0.995264D+00   -0.887468D+01    0.139204D-01
   0    99    0.157997D-01    0.995257D+00    0.115624D+01    0.139333D-01
   0   100    0.153789D-01    0.996780D+00   -0.160855D+01    0.928166D-02
   0   101    0.153745D-01    0.997071D+00    0.179579D+01    0.772389D-02
   0   102    0.156466D-01    0.997195D+00   -0.903843D+01    0.879471D-02
   0   103    0.155602D-01    0.996396D+00    0.402579D+01    0.990936D-02
   0   104    0.155394D-01    0.995317D+00    0.487390D+01    0.134821D-01
   0   105    0.152798D-01    0.995412D+00   -0.532915D+01    0.134928D-01
   0   106    0.151762D-01    0.995910D+00   -0.322104D+01    0.121828D-01
   0   107    0.151032D-01    0.996233D+00   -0.800825D+01    0.107416D-01
   0   108    0.153853D-01    0.996518D+00    0.477720D+01    0.943118D-02
   0   109    0.154345D-01    0.996088D+00   -0.819334D+01    0.116870D-01
   0   110    0.157886D-01    0.995870D+00   -0.837180D+00    0.115709D-01
   0   111    0.154872D-01    0.996417D+00   -0.181932D+01    0.105315D-01
   0   112    0.152813D-01    0.997037D+00   -0.255576D+01    0.861786D-02
   0   113    0.153216D-01    0.996660D+00   -0.832464D+01    0.913835D-02
   0   114    0.152085D-01    0.997214D+00    0.307509D+01    0.829982D-02
   0   115    0.156500D-01    0.996021D+00   -0.229348D+01    0.120218D-01
   0   116    0.156153D-01    0.997236D+00    0.350748D+01    0.824574D-02
   0   117    0.152920D-01    0.997253D+00    0.900796D+01    0.720455D-02
   0   118    0.155907D-01    0.996543D+00    0.271234D+01    0.104268D-01
   0   119    0.155503D-01    0.997844D+00    0.709401D+01    0.651972D-02
   0   120    0.155903D-01    0.997156D+00    0.212961D+01    0.728728D-02
   0   121    0.156189D-01    0.995902D+00   -0.246055D+01    0.110740D-01
   0   122    0.153360D-01    0.995351D+00   -0.208271D+01    0.136385D-01
   0   123    0.157437D-01    0.995948D+00    0.705729D+01    0.107913D-01
   0   124    0.156888D-01    0.996262D+00   -0.665142D+01    0.103611D-01
   0   125    0.153051D-01    0.996890D+00   -0.290402D+01    0.832835D-02
   0   126    0.151307D-01    0.996684D+00    0.444618D+01    0.101147D-01
   0   127    0.153953D-01    0.997236D+00   -0.636443D+00    0.773631D-02
   0   128    0.159183D-01    0.995505D+00    0.390765D+01    0.131207D-01
   0   129    0.154609D-01    0.996143D+00   -0.476030D+01    0.108277D-01
   0   130    0.154543D-01    0.995900D+00    0.236729D+01    0.122390D-01
   0   131    0.153011D-01    0.995817D+00   -0.914869D+01    0.115344D-01
   0   132    0.149349D-01    0.995998D+00   -0.801076D+01    0.120654D-01
   0   133    0.150904D-01    0.996009D+00   -0.420296D+01    0.108329D-01
   0   134    0.157288D-01    0.996703D+00   -0.619956D+00    0.923255D-02
   0   135    0.158265D-01    0.996152D+00   -0.262219D+01    0.115667D-01
   0   136    0.154078D-01    0.995694D+00    0.671450D+01    0.117694D-01
   0   137    0.154104D-01    0.996793D+00   -0.485805D+00    0.936262D-02
   0   138    0.151929D-01    0.995955D+00   -0.706185D+01    0.114118D-01
   0   139    0.148419D-01    0.995239D+00   -0.513521D+00    0.134421D-01
   0   140    0.153484D-01    0.996369D+00    0.674240D+01    0.103847D-01
   0   141    0.154531D-01    0.995702D+00    0.193726D+00    0.129342D-01
   0   142    0.154548D-01    0.996459D+00    0.793171D+01    0.974724D-02
   0   143    0.154224D-01    0.996815D+00   -0.396721D+01    0.826876D-02
   0   144    0.154903D-01    0.996500D+00    0.639363D+01    0.101064D-01
   0   145    0.155274D-01    0.996077D+00    0.887435D+01    0.113088D-01
   0   146    0.154663D-01    0.995410D+00    0.758610D+01    0.130901D-01
   0   147    0.154651D-01    0.997285D+00   -0.339181D+01    0.771460D-02
   0   148    0.150458D-01    0.997477D+00   -0.336764D-01    0.719803D-02
   0   149    0.153875D-01    0.996935D+00   -0.276268D+00    0.797315D-02
   0   150    0.152588D-01    0.996353D+00   -0.777323D+01    0.987291D-02
   0   151    0.154784D-01    0.995886D+00    0.861774D+01    0.126085D-01
   0   152    0.153869D-01    0.995547D+00   -0.526026D+01    0.124288D-01
   0   153    0.152346D-01    0.996229D+00   -0.916357D+00    0.104517D-01
   0   154    0.152472D-01    0.996502D+00    0.640234D+01    0.102468D-01
   0   155    0.153561D-01    0.995933D+00   -0.308831D+01    0.112875D-01
   0   156    0.151705D-01    0.996665D+00   -0.272340D+01    0.104548D-01
   0   157    0.153251D-01    0.996200D+00   -0.833469D+01    0.104624D-01
   0   158    0.150141D-01    0.995072D+00   -0.141742D+01    0.140255D-01
   0   159    0.155811D-01    0.995912D+00   -0.921264D+01    0.122433D-01
   0   160    0.148709D-01    0.996742D+00    0.744458D+01    0.970167D-02
   0   161    0.153061D-01    0.996933D+00    0.410020D+01    0.871453D-02
   0   162    0.156259D-01    0.997510D+00    0.170839D+01    0.735468D-02
   0   163    0.156033D-01    0.998119D+00    0.263086D+01    0.504956D-02
   0   164    0.153857D-01    0.997292D+00    0.689643D+01    0.833548D-02
   0   165    0.151072D-01    0.998157D+00    0.702809D+01    0.564056D-02
   0   166    0.150518D-01    0.997708D+00    0.651701D+01    0.721477D-02
   0   167    0.149642D-01    0.997875D+00    0.765935D+01    0.665541D-02
   0   168    0.149948D-01    0.996980D+00    0.724129D+01    0.836683D-02
   0   169    0.154042D-01    0.995850D+00   -0.328316D+01    0.118438D-01
   0   170    0.153214D-01    0.995771D+00   -0.645238D-01    0.117235D-01
   0   171    0.150473D-01    0.996557D+00    0.840405D+01    0.105141D-01
   0   172    0.152349D-01    0.997431D+00    0.779180D+01    0.751875D-02
   0   173    0.149257D-01    0.997734D+00    0.693077D+01    0.666464D-02
   0   174    0.151461D-01    0.998398D+00   -0.184103D+01    0.461700D-02
   0   175    0.150625D-01    0.998293D+00    0.858397D+01    0.558326D-02
   0   176    0.150153D-01    0.997472D+00    0.503650D+01    0.759755D-02
   0   177    0.148648D-01    0.996655D+00    0.139820D+01    0.888850D-02
   0   178    0.151762D-01    0.997296D+00    0.243118D+01    0.735008D-02
   0   179    0.149752D-01    0.997155D+00    0.654807D+01    0.776265D-02
   0   180    0.148951D-01    0.996838D+00   -0.941179D+00    0.836427D-02
   0   181    0.149364D-01    0.997973D+00   -0.626402D+01    0.540805D-02
   0   182    0.144692D-01    0.998157D+00   -0.489805D+01    0.564819D-02
   0   183    0.146714D-01    0.998013D+00   -0.623690D+01    0.504396D-02
   0   184    0.144345D-01    0.998956D+00    0.557794D+00    0.341088D-02
   0   185    0.148030D-01    0.998038D+00   -0.346077D+01    0.635281D-02
   0   186    0.147917D-01    0.998428D+00   -0.582220D+01    0.447639D-02
   0   187    0.147628D-01    0.998380D+00   -0.663556D+01    0.510159D-02
   0   188    0.147124D-01    0.997714D+00   -0.402580D+01    0.600894D-02
   0   189    0.147577D-01    0.997530D+00    0.549445D+01    0.658144D-02
   0   190    0.149701D-01    0.997233D+00    0.372127D+01    0.780660D-02
   0   191    0.148175D-01    0.998147D+00   -0.209732D+01    0.584068D-02
   0   192    0.145789D-01    0.998093D+00   -0.376741D+00    0.511533D-02
   0   193    0.146567D-01    0.996794D+00    0.898281D+00    0.925910D-02
   0   194    0.146720D-01    0.996871D+00    0.199718D+00    0.889918D-02
   0   195    0.146839D-01    0.996854D+00    0.777947D+01    0.900997D-02
   0   196    0.144737D-01    0.996834D+00    0.496676D+00    0.917903D-02
   0   197    0.147839D-01    0.997021D+00   -0.612777D+01    0.790191D-02
   0   198    0.149353D-01    0.996951D+00    0.195218D+00    0.929910D-02
   0   199    0.151767D-01    0.997415D+00   -0.527989D+01    0.780996D-02
   0   200    0.149679D-01    0.997634D+00   -0.128905D+00    0.684767D-02
   0   201    0.148394D-01    0.997533D+00    0.946050D+01    0.769154D-02
   0   202    0.147178D-01    0.996789D+00   -0.372074D+01    0.867428D-02
   0   203    0.147126D-01    0.996681D+00   -0.698150D+01    0.888772D-02
   0   204    0.148549D-01    0.996998D+00   -0.779718D+01    0.829364D-02
   0   205    0.147808D-01    0.997603D+00   -0.639705D+01    0.635215D-02
   0   206    0.147699D-01    0.998000D+00    0.537455D+01    0.556800D-02
   0   207    0.146233D-01    0.997778D+00    0.790681D+01    0.659052D-02
   0   208    0.142955D-01    0.997002D+00   -0.287723D+01    0.889860D-02
   0   209    0.146086D-01    0.996566D+00    0.161554D+01    0.967130D-02
   0   210    0.148180D-01    0.997187D+00   -0.812502D+01    0.740602D-02
   0   211    0.148120D-01    0.998220D+00    0.636554D+01    0.484134D-02
   0   212    0.144975D-01    0.999186D+00    0.277272D+01    0.251291D-02
   0   213    0.147377D-01    0.998311D+00    0.874245D+01    0.526979D-02
   0   214    0.147293D-01    0.997231D+00   -0.563772D+01    0.859348D-02
   0   215    0.146313D-01    0.998179D+00   -0.728491D+01    0.521923D-02
   0   216    0.140730D-01    0.997324D+00    0.376129D+01    0.774151D-02
   0   217    0.147468D-01    0.997589D+00    0.161017D+01    0.685183D-02
   0   218    0.141650D-01    0.998318D+00    0.314521D+00    0.432007D-02
   0   219    0.144168D-01    0.997580D+00    0.306534D+01    0.673999D-02
   0   220    0.142052D-01    0.998279D+00   -0.752781D+00    0.500072D-02
   0   221    0.146284D-01    0.997129D+00   -0.513161D+01    0.881286D-02
   0   222    0.146046D-01    0.997194D+00   -0.316653D+01    0.829146D-02
   0   223    0.143032D-01    0.998141D+00   -0.706821D+01    0.532239D-02
   0   224    0.142310D-01    0.998548D+00   -0.578594D+01    0.463298D-02
   0   225    0.139923D-01    0.998332D+00    0.803074D+01    0.512373D-02
   0   226    0.142343D-01    0.998226D+00   -0.283407D+01    0.467906D-02
   0   227    0.142756D-01    0.998949D+00   -0.647078D+01    0.359385D-02
   0   228    0.144121D-01    0.998783D+00   -0.586179D+01    0.393360D-02
   0   229    0.143668D-01    0.998920D+00   -0.118578D+01    0.289961D-02
   0   230    0.141847D-01    0.997768D+00    0.213035D+01    0.623637D-02
   0   231    0.148187D-01    0.997938D+00    0.183357D+01    0.636924D-02
   0   232    0.144380D-01    0.997496D+00    0.271671D+01    0.733582D-02
   0   233    0.143132D-01    0.996301D+00   -0.337077D+01    0.108605D-01
   0   234    0.141401D-01    0.996216D+00   -0.517145D+01    0.103628D-01
   0   235    0.142010D-01    0.997236D+00   -0.249777D+01    0.752241D-02
   0   236    0.144368D-01    0.997880D+00    0.257468D+01    0.643612D-02
   0   237    0.144179D-01    0.998766D+00   -0.353676D+01    0.313152D-02
   0   238    0.144668D-01    0.998554D+00   -0.144787D+01    0.377780D-02
   0   239    0.146168D-01    0.997778D+00    0.499993D+01    0.695465D-02
   0   240    0.149264D-01    0.998205D+00   -0.235939D+01    0.453130D-02
   0   241    0.144747D-01    0.999206D+00   -0.553523D+01    0.240303D-02
   0   242    0.145020D-01    0.998343D+00    0.249069D+01    0.493249D-02
   0   243    0.145948D-01    0.998003D+00    0.215582D+01    0.524166D-02
   0   244    0.144281D-01    0.999028D+00   -0.723943D+01    0.307467D-02
   0   245    0.139635D-01    0.998219D+00    0.565570D+01    0.489443D-02
   0   246    0.143706D-01    0.996925D+00   -0.176111D+01    0.909417D-02
   0   247    0.139725D-01    0.997219D+00    0.113165D+01    0.798782D-02
   0   248    0.140638D-01    0.998250D+00   -0.122348D+01    0.482796D-02
   0   249    0.145839D-01    0.998727D+00   -0.565433D+01    0.289651D-02
   0   250    0.143203D-01    0.998536D+00   -0.168864D+01    0.427742D-02
   0   251    0.144128D-01    0.997989D+00    0.544722D+01    0.553377D-02
   0   252    0.139219D-01    0.997777D+00    0.574284D+01    0.593701D-02
   0   253    0.137733D-01    0.997220D+00   -0.681022D+01    0.786042D-02
   0   254    0.141211D-01    0.996918D+00    0.466231D+01    0.881058D-02
   0   255    0.136269D-01    0.998257D+00   -0.680093D+01    0.468711D-02
   0   256    0.140928D-01    0.998282D+00   -0.844670D+01    0.486943D-02
   0   257    0.140641D-01    0.998481D+00    0.730932D+01    0.490597D-02
   0   258    0.140250D-01    0.998489D+00   -0.862314D+00    0.501247D-02
   0   259    0.139599D-01    0.998054D+00    0.560243D+01    0.503202D-02
   0   260    0.140814D-01    0.998239D+00    0.492366D+00    0.448172D-02
   0   261    0.139891D-01    0.998621D+00   -0.685528D+01    0.359922D-02
   0   262    0.135953D-01    0.999253D+00   -0.234916D+01    0.217590D-02
   0   263    0.140834D-01    0.999019D+00    0.165965D+01    0.322902D-02
   0   264    0.137942D-01    0.999188D+00    0.455266D+01    0.231236D-02
   0   265    0.138376D-01    0.999419D+00   -0.418859D-01    0.219132D-02
   0   266    0.137377D-01    0.999072D+00   -0.937908D+00    0.210433D-02
   0   267    0.136985D-01    0.999673D+00    0.404591D+01    0.113749D-02
   0   268    0.135829D-01    0.998845D+00    0.983796D+00    0.279367D-02
   0   269    0.140375D-01    0.998904D+00    0.128027D+01    0.277739D-02
   0   270    0.138842D-01    0.999155D+00    0.514824D+01    0.314827D-02
   0   271    0.134962D-01    0.999447D+00   -0.168926D+01    0.136493D-02
   0   272    0.136940D-01    0.999926D+00   -0.321013D+01   -0.230054D-03
   0   273    0.134670D-01    0.999137D+00   -0.146178D+01    0.200817D-02
   0   274    0.135499D-01    0.999820D+00    0.836288D+01    0.113028D-03
   0   275    0.138730D-01    0.999037D+00    0.812393D+01    0.342638D-02
   0   276    0.140510D-01    0.998121D+00   -0.624469D+01    0.607544D-02
   0   277    0.141432D-01    0.997813D+00   -0.116906D+01    0.640334D-02
   0   278    0.141489D-01    0.998526D+00   -0.141055D+01    0.351748D-02
   0   279    0.139965D-01    0.997476D+00   -0.497809D+01    0.666142D-02
   0   280    0.135374D-01    0.996978D+00   -0.151430D+01    0.843551D-02
   0   281    0.141537D-01    0.997964D+00   -0.592298D+01    0.522232D-02
   0   282    0.141021D-01    0.998665D+00   -0.358985D+01    0.398279D-02
   0   283    0.141023D-01    0.998566D+00   -0.650460D+01    0.407887D-02
   0   284    0.139394D-01    0.998515D+00   -0.793780D+01    0.444540D-02
   0   285    0.141048D-01    0.998256D+00   -0.814348D+01    0.468714D-02
   0   286    0.138013D-01    0.999896D+00    0.723924D+01    0.580202D-03
   0   287    0.138070D-01    0.998271D+00    0.402379D+01    0.459593D-02
   0   288    0.141811D-01    0.997714D+00   -0.556192D+01    0.686646D-02
   0   289    0.141244D-01    0.997925D+00   -0.785690D+01    0.537737D-02
   0   290    0.139883D-01    0.997179D+00    0.544855D+01    0.848400D-02
   0   291    0.141626D-01    0.998147D+00   -0.807731D+01    0.531187D-02
   0   292    0.142974D-01    0.998798D+00    0.274102D+01    0.339835D-02
   0   293    0.144427D-01    0.997560D+00   -0.267022D+01    0.724334D-02
   0   294    0.142202D-01    0.998072D+00   -0.138456D+01    0.604773D-02
   0   295    0.146991D-01    0.997304D+00   -0.712180D+01    0.718892D-02
   0   296    0.142424D-01    0.997914D+00    0.646849D+00    0.540237D-02
   0   297    0.150050D-01    0.997031D+00    0.632683D+01    0.910985D-02
   0   298    0.149479D-01    0.996980D+00   -0.768811D+01    0.890428D-02
   0   299    0.150391D-01    0.995293D+00    0.173013D+01    0.130558D-01
   0   300    0.155039D-01    0.995495D+00   -0.843591D+01    0.132294D-01
   0   301    0.155628D-01    0.994608D+00   -0.130568D+01    0.160241D-01
   0   302    0.153542D-01    0.994319D+00    0.569519D+01    0.157333D-01
   0   303    0.159906D-01    0.994190D+00   -0.817812D+01    0.170756D-01
   0   304    0.161327D-01    0.993579D+00   -0.994108D+00    0.182345D-01
   0   305    0.159377D-01    0.992059D+00    0.354539D+01    0.228390D-01
   0   306    0.170460D-01    0.990217D+00    0.970392D+00    0.279273D-01
   0   307    0.182631D-01    0.984580D+00   -0.354658D+00    0.438079D-01
   0   308    0.196139D-01    0.978280D+00    0.975911D+01    0.619792D-01
   0   309    0.233273D-01    0.965083D+00   -0.993505D+01    0.963873D-01
   0   310    0.263105D-01    0.944601D+00    0.305900D+01    0.145102D+00
   0   311    0.284428D-01    0.915104D+00    0.128426D+02    0.201530D+00
   0   312    0.268795D-01    0.868210D+00   -0.828654D+01    0.264147D+00
   0   313    0.198965D-01    0.797321D+00    0.131502D+01    0.318887D+00
   0   314    0.115855D-01    0.704582D+00    0.884341D+01    0.356687D+00
   0   315    0.572840D-02    0.597574D+00    0.246745D+01    0.380326D+00
   0   316    0.244492D-02    0.487605D+00    0.107173D+01    0.394843D+00
   0   317    0.924068D-03    0.385003D+00    0.681011D+00    0.403859D+00
   0   318    0.333907D-03    0.295467D+00    0.345862D+00    0.409631D+00
   0   319    0.119027D-03    0.221304D+00    0.899738D-01    0.413426D+00
   0   320    0.399724D-04    0.162292D+00    0.431200D-01    0.415974D+00
   0   321    0.129725D-04    0.116840D+00    0.357103D-02    0.417707D+00
   0   322    0.419740D-05    0.827672D-01    0.183944D-02    0.418895D+00
   0   323    0.133333D-05    0.578044D-01    0.129982D-02    0.419711D+00
   0   324    0.408058D-06    0.398714D-01    0.327796D-03    0.420272D+00
   0   325    0.119711D-06    0.272040D-01    0.121428D-03    0.420656D+00
   0   326    0.360446D-07    0.183854D-01    0.286853D-04    0.420917D+00
   0   327    0.103236D-07    0.123228D-01    0.128203D-04    0.421094D+00
   0   328    0.297974D-08    0.819984D-02    0.248291D-05    0.421213D+00
   0   329    0.853742D-09    0.542214D-02    0.107748D-05    0.421293D+00
   0   330    0.241971D-09    0.356582D-02    0.851398D-07    0.421346D+00
   0   331    0.749068D-10    0.233391D-02    0.673719D-07    0.421381D+00
   0   332    0.234051D-10    0.152130D-02    0.116579D-07    0.421404D+00
   0   333    0.713462D-11    0.988075D-03    0.224789D-08    0.421419D+00
   0   334    0.213783D-11    0.639751D-03    0.101892D-08    0.421429D+00
   0   335    0.636801D-12    0.413102D-03    0.162824D-09    0.421435D+00
   0   336    0.183043D-12    0.266123D-03    0.112606D-09    0.421439D+00
   0   337    0.520889D-13    0.171088D-03    0.636871D-10    0.421442D+00
   0   338    0.145605D-13    0.109795D-03    0.160634D-10    0.421444D+00
   0   339    0.414300D-14    0.703515D-04    0.111527D-11    0.421445D+00
   0   340    0.112607D-14    0.450169D-04    0.129926D-11    0.421446D+00
   0   341    0.320395D-15    0.287716D-04    0.325014D-12    0.421446D+00
   0   342    0.859988D-16    0.183697D-04    0.619488D-13    0.421447D+00
   0   343    0.234150D-16    0.117177D-04    0.193517D-13    0.421447D+00
   0   344    0.620395D-17    0.746858D-05    0.392666D-14    0.421447D+00
   0   345    0.168732D-17    0.475692D-05    0.140390D-14    0.421447D+00
   0   346    0.449927D-18    0.302791D-05    0.392473D-15    0.421447D+00
   0   347    0.117317D-18    0.192629D-05    0.102950D-15    0.421447D+00
   0   348    0.317473D-19    0.122486D-05    0.943611D-17    0.421447D+00
   0   349    0.790889D-20    0.778507D-06    0.306742D-17    0.421447D+00
   0   350    0.198955D-20    0.494619D-06    0.858987D-18    0.421447D+00
   0   351    0.531322D-21    0.314144D-06    0.234610D-18    0.421447D+00
   0   352    0.129494D-21    0.199458D-06    0.603730D-19    0.421447D+00
   0   353    0.325773D-22    0.126606D-06    0.358116D-19    0.421447D+00
   0   354    0.819079D-23    0.803426D-07    0.379938D-20    0.421447D+00
   0   355    0.208290D-23    0.509730D-07    0.801081D-21    0.421447D+00
   0   356    0.514695D-24    0.323329D-07    0.426008D-21    0.421447D+00
   0   357    0.127973D-24    0.205054D-07    0.750529D-22    0.421447D+00
   0   358    0.323288D-25    0.130022D-07    0.200187D-22    0.421447D+00
   0   359    0.797616D-26    0.824319D-08    0.562339D-23    0.421447D+00
   0   360    0.195892D-26    0.522530D-08    0.144269D-23    0.421447D+00
   0   361    0.476844D-27    0.331183D-08    0.348683D-24    0.421447D+00
   0   362    0.117095D-27    0.209880D-08    0.127721D-24    0.421447D+00
   0   363    0.291513D-28    0.132991D-08    0.318592D-25    0.421447D+00
   0   364    0.705441D-29    0.842607D-09    0.329974D-26    0.421447D+00
   0   365    0.173382D-29    0.533806D-09    0.537500D-27    0.421447D+00
   0   366    0.429102D-30    0.338142D-09    0.471522D-27    0.421447D+00
   0   367    0.102085D-30    0.214178D-09    0.659450D-28    0.421447D+00
   0   368    0.239300D-31    0.135648D-09    0.224326D-28    0.421447D+00
   0   369    0.573032D-32    0.859046D-10    0.231109D-29    0.421447D+00
   0   370    0.139653D-32    0.543984D-10    0.121748D-29    0.421447D+00
   0   371    0.348231D-33    0.344448D-10    0.401124D-30    0.421447D+00
   0   372    0.848507D-34    0.218089D-10    0.808114D-31    0.421447D+00
   0   373    0.208084D-34    0.138075D-10    0.975328D-32    0.421447D+00
   0   374    0.499912D-35    0.874116D-11    0.268217D-32    0.421447D+00
   0   375    0.120746D-35    0.553350D-11    0.138242D-32    0.421447D+00
   0   376    0.290786D-36    0.350274D-11    0.396882D-33    0.421447D+00
   0   377    0.714171D-37    0.221715D-11    0.863425D-34    0.421447D+00
   0   378    0.178157D-37    0.140334D-11    0.376706D-35    0.421447D+00
   0   379    0.417132D-38    0.888206D-12    0.530871D-35    0.421447D+00
   0   380    0.102038D-38    0.562144D-12    0.329097D-36    0.421447D+00
   0   381    0.238803D-39    0.355767D-12    0.289780D-36    0.421447D+00
   0   382    0.567687D-40    0.225150D-12    0.244332D-37    0.421447D+00
   0   383    0.136767D-40    0.142483D-12    0.900233D-38    0.421447D+00
   0   384    0.327818D-41    0.901665D-13    0.134991D-38    0.421447D+00
   0   385    0.773083D-42    0.570580D-13    0.275003D-39    0.421447D+00
   0   386    0.183992D-42    0.361060D-13    0.919824D-40    0.421447D+00
   0   387    0.447308D-43    0.228472D-13    0.174678D-40    0.421447D+00
   0   388    0.108677D-43    0.144570D-13    0.139913D-40    0.421447D+00
   0   389    0.253415D-44    0.914765D-14    0.144991D-41    0.421447D+00
   0   390    0.613359D-45    0.578790D-14    0.344845D-42    0.421447D+00
   0   391    0.150050D-45    0.366174D-14    0.168615D-42    0.421447D+00
   0   392    0.354740D-46    0.231605D-14    0.219773D-43    0.421447D+00
   0   393    0.811234D-47    0.146402D-14    0.950312D-44    0.421447D+00
   0   394    0.191193D-47    0.924063D-15    0.196314D-44    0.421447D+00
   0   395    0.451046D-48    0.581075D-15    0.423649D-45    0.421447D+00
   0   396    0.110119D-48    0.361949D-15    0.770085D-46    0.421447D+00
   0   397    0.266747D-49    0.219976D-15    0.924071D-47    0.421447D+00