variables =  "IG"  "JG"  "PHI"  "Temp."  "Latent_heat"  "mm"
ZONE  I=  401  J=  101
   0     0    0.100000D+01    0.896495D+00    0.000000D+00    0.229937D+00
   0     1    0.100000D+01    0.896495D+00    0.000000D+00    0.229937D+00
   0     2    0.100000D+01    0.896725D+00    0.000000D+00    0.229618D+00
   0     3    0.100000D+01    0.897185D+00    0.000000D+00    0.228979D+00
   0     4    0.100000D+01    0.897873D+00    0.000000D+00    0.228018D+00
   0     5    0.100000D+01    0.898787D+00    0.000000D+00    0.226731D+00
   0     6    0.100000D+01    0.899924D+00    0.000000D+00    0.225112D+00
   0     7    0.100000D+01    0.901281D+00    0.000000D+00    0.223157D+00
   0     8    0.100000D+01    0.902853D+00    0.000000D+00    0.220857D+00
   0     9    0.100000D+01    0.904637D+00    0.000000D+00    0.218204D+00
   0    10    0.100000D+01    0.906627D+00    0.000000D+00    0.215189D+00
   0    11    0.100000D+01    0.908818D+00    0.000000D+00    0.211799D+00
   0    12    0.100000D+01    0.911203D+00    0.000000D+00    0.208024D+00
   0    13    0.100000D+01    0.913776D+00    0.000000D+00    0.203850D+00
   0    14    0.100000D+01    0.916530D+00    0.000000D+00    0.199261D+00
   0    15    0.100000D+01    0.919459D+00    0.000000D+00    0.194244D+00
   0    16    0.100000D+01    0.922556D+00    0.000000D+00    0.188780D+00
   0    17    0.100000D+01    0.925814D+00    0.000000D+00    0.182854D+00
   0    18    0.100000D+01    0.929225D+00    0.000000D+00    0.176446D+00
   0    19    0.100000D+01    0.932785D+00    0.000000D+00    0.169538D+00
   0    20    0.100000D+01    0.936485D+00    0.000000D+00    0.162110D+00
   0    21    0.100000D+01    0.940322D+00    0.119904D-09    0.154142D+00
   0    22    0.100000D+01    0.944291D+00    0.985878D-09    0.145611D+00
   0    23    0.100000D+01    0.948389D+00    0.181188D-08    0.136495D+00
   0    24    0.100000D+01    0.952617D+00    0.416467D-07    0.126765D+00
   0    25    0.100000D+01    0.956980D+00    0.228391D-06    0.116388D+00
   0    26    0.100000D+01    0.961486D+00   -0.126960D-05    0.105320D+00
   0    27    0.100000D+01    0.966153D+00    0.112487D-05    0.934981D-01
   0    28    0.100000D+01    0.971010D+00    0.928097D-04    0.808337D-01
   0    29    0.999999D+00    0.976104D+00   -0.147867D-03    0.671963D-01
   0    30    0.999991D+00    0.981503D+00    0.346655D-02    0.523989D-01
   0    31    0.999939D+00    0.987307D+00    0.308719D-02    0.361681D-01
   0    32    0.999608D+00    0.993671D+00   -0.141789D+00    0.181017D-01
   0    33    0.997558D+00    0.100084D+01    0.792553D+00   -0.241019D-02
   0    34    0.985300D+00    0.100953D+01    0.655842D+01   -0.271238D-01
   0    35    0.914756D+00    0.101899D+01   -0.248236D+02   -0.545165D-01
   0    36    0.590032D+00    0.103345D+01   -0.156819D+02   -0.895317D-01
   0    37    0.143088D+00    0.103082D+01   -0.193017D+02   -0.844828D-01
   0    38    0.346524D-01    0.102427D+01    0.810328D+01   -0.688830D-01
   0    39    0.129315D-01    0.101984D+01   -0.579369D+01   -0.565745D-01
   0    40    0.900617D-02    0.101529D+01    0.128985D+01   -0.439050D-01
   0    41    0.868103D-02    0.101186D+01    0.211754D+00   -0.336932D-01
   0    42    0.944610D-02    0.100926D+01   -0.498438D+01   -0.263210D-01
   0    43    0.101850D-01    0.100708D+01    0.457923D+01   -0.197941D-01
   0    44    0.107845D-01    0.100616D+01   -0.220966D+01   -0.176994D-01
   0    45    0.108171D-01    0.100493D+01   -0.162645D+01   -0.135536D-01
   0    46    0.111380D-01    0.100385D+01   -0.161014D+01   -0.105141D-01
   0    47    0.113859D-01    0.100304D+01    0.359467D+01   -0.887656D-02
   0    48    0.115473D-01    0.100322D+01   -0.358836D+01   -0.925170D-02
   0    49    0.117042D-01    0.100302D+01   -0.183950D+01   -0.937110D-02
   0    50    0.120001D-01    0.100219D+01   -0.453653D+01   -0.608264D-02
   0    51    0.121365D-01    0.100222D+01   -0.567096D+01   -0.616513D-02
   0    52    0.118889D-01    0.100217D+01    0.278692D+01   -0.652769D-02
   0    53    0.122490D-01    0.100114D+01    0.220654D+01   -0.341308D-02
   0    54    0.125259D-01    0.100059D+01    0.295749D+01   -0.238045D-02
   0    55    0.127039D-01    0.100161D+01    0.621314D+01   -0.470510D-02
   0    56    0.131700D-01    0.100123D+01   -0.472506D+01   -0.339651D-02
   0    57    0.135007D-01    0.100097D+01    0.424638D+01   -0.327696D-02
   0    58    0.132167D-01    0.100151D+01    0.686387D+01   -0.414173D-02
   0    59    0.133525D-01    0.100168D+01    0.610979D+01   -0.458286D-02
   0    60    0.133527D-01    0.100001D+01    0.636154D+01   -0.465008D-03
   0    61    0.136153D-01    0.999903D+00   -0.159354D+01    0.389291D-03
   0    62    0.136868D-01    0.100025D+01   -0.399649D+01   -0.690661D-03
   0    63    0.136152D-01    0.100012D+01    0.527634D+01    0.288917D-03
   0    64    0.140882D-01    0.998912D+00   -0.101780D+01    0.276820D-02
   0    65    0.141296D-01    0.998883D+00   -0.794538D+01    0.284949D-02
   0    66    0.142665D-01    0.998980D+00   -0.407814D+01    0.323985D-02
   0    67    0.143709D-01    0.998204D+00    0.435524D+01    0.530850D-02
   0    68    0.145435D-01    0.997445D+00    0.567084D+01    0.740582D-02
   0    69    0.142685D-01    0.998097D+00   -0.777550D+01    0.503283D-02
   0    70    0.146352D-01    0.998944D+00   -0.568479D+01    0.295815D-02
   0    71    0.145158D-01    0.998745D+00    0.831214D-01    0.331838D-02
   0    72    0.148078D-01    0.998253D+00    0.169372D+01    0.470061D-02
   0    73    0.147234D-01    0.997952D+00   -0.448577D+01    0.560331D-02
   0    74    0.153751D-01    0.998643D+00    0.130517D+01    0.363438D-02
   0    75    0.149362D-01    0.997640D+00    0.703493D+01    0.625617D-02
   0    76    0.145993D-01    0.997270D+00    0.679045D+01    0.827953D-02
   0    77    0.147717D-01    0.996865D+00    0.608541D+01    0.841904D-02
   0    78    0.147973D-01    0.996603D+00    0.362505D+01    0.955548D-02
   0    79    0.146112D-01    0.996916D+00    0.710729D+01    0.811219D-02
   0    80    0.145738D-01    0.997651D+00   -0.535301D+01    0.639384D-02
   0    81    0.148241D-01    0.997135D+00    0.487211D+01    0.768778D-02
   0    82    0.149203D-01    0.999035D+00   -0.611259D+01    0.302723D-02
   0    83    0.148515D-01    0.998397D+00   -0.401380D+01    0.487383D-02
   0    84    0.148012D-01    0.997744D+00    0.915774D+01    0.598533D-02
   0    85    0.148694D-01    0.997070D+00   -0.570981D+01    0.886927D-02
   0    86    0.147340D-01    0.997730D+00    0.513596D+01    0.668475D-02
   0    87    0.145033D-01    0.997924D+00    0.635533D+01    0.587562D-02
   0    88    0.147955D-01    0.997227D+00   -0.192798D+01    0.805891D-02
   0    89    0.151739D-01    0.997098D+00   -0.466313D+01    0.881105D-02
   0    90    0.148671D-01    0.996948D+00    0.639338D+01    0.836031D-02
   0    91    0.149812D-01    0.997508D+00   -0.514390D+01    0.657744D-02
   0    92    0.148163D-01    0.997535D+00   -0.824163D+01    0.650951D-02
   0    93    0.150157D-01    0.997284D+00   -0.650472D+00    0.746112D-02
   0    94    0.150401D-01    0.997286D+00    0.355553D+00    0.829245D-02
   0    95    0.149799D-01    0.997183D+00   -0.849696D+00    0.865169D-02
   0    96    0.152667D-01    0.997127D+00   -0.997344D+01    0.802506D-02
   0    97    0.151730D-01    0.996424D+00    0.545996D+01    0.949744D-02
   0    98    0.152494D-01    0.995817D+00   -0.208774D+01    0.122527D-01
   0    99    0.151752D-01    0.997030D+00   -0.406725D+01    0.841747D-02
   0   100    0.148128D-01    0.996118D+00    0.221252D+01    0.108742D-01
   0   101    0.152539D-01    0.997053D+00   -0.134924D+01    0.796706D-02
   0   102    0.152883D-01    0.997621D+00    0.555178D+01    0.740512D-02
   0   103    0.153158D-01    0.997342D+00    0.292735D+01    0.694123D-02
   0   104    0.154401D-01    0.996929D+00   -0.619822D+01    0.942431D-02
   0   105    0.149575D-01    0.996178D+00    0.883392D+01    0.103650D-01
   0   106    0.147406D-01    0.997914D+00    0.479647D+01    0.636333D-02
   0   107    0.154652D-01    0.997491D+00   -0.545625D+01    0.695344D-02
   0   108    0.149742D-01    0.996529D+00    0.921320D+01    0.954744D-02
   0   109    0.150831D-01    0.995816D+00   -0.739282D+01    0.117443D-01
   0   110    0.151264D-01    0.995986D+00    0.421856D+01    0.113409D-01
   0   111    0.153789D-01    0.996867D+00    0.649791D+01    0.861568D-02
   0   112    0.152011D-01    0.996128D+00   -0.756438D+01    0.104395D-01
   0   113    0.152346D-01    0.997105D+00   -0.108331D+01    0.907526D-02
   0   114    0.150323D-01    0.997131D+00   -0.268886D+01    0.753664D-02
   0   115    0.147551D-01    0.997470D+00    0.458180D+01    0.677708D-02
   0   116    0.149127D-01    0.996848D+00   -0.558127D+01    0.843399D-02
   0   117    0.151380D-01    0.997503D+00   -0.195465D+01    0.764415D-02
   0   118    0.153976D-01    0.996843D+00   -0.182307D+00    0.864773D-02
   0   119    0.150658D-01    0.997009D+00    0.221759D+01    0.880556D-02
   0   120    0.149444D-01    0.998223D+00   -0.265893D+01    0.473446D-02
   0   121    0.151657D-01    0.997746D+00   -0.419303D+01    0.590965D-02
   0   122    0.148354D-01    0.998482D+00   -0.183240D+01    0.412678D-02
   0   123    0.150074D-01    0.999157D+00   -0.244683D+01    0.211606D-02
   0   124    0.149800D-01    0.998159D+00    0.526120D+01    0.477522D-02
   0   125    0.146967D-01    0.997237D+00   -0.494667D+01    0.810159D-02
   0   126    0.147924D-01    0.997813D+00   -0.641317D+01    0.660201D-02
   0   127    0.153136D-01    0.997270D+00   -0.205728D+01    0.824258D-02
   0   128    0.151042D-01    0.997198D+00    0.255794D+01    0.772438D-02
   0   129    0.152329D-01    0.996849D+00    0.113733D+01    0.868771D-02
   0   130    0.148018D-01    0.996379D+00   -0.236269D+01    0.103263D-01
   0   131    0.145014D-01    0.996351D+00   -0.158481D+01    0.107345D-01
   0   132    0.150266D-01    0.996451D+00   -0.108605D+01    0.949809D-02
   0   133    0.147097D-01    0.998062D+00   -0.391598D+01    0.588479D-02
   0   134    0.146082D-01    0.997475D+00    0.604958D+01    0.744618D-02
   0   135    0.150761D-01    0.996275D+00    0.104640D+01    0.107307D-01
   0   136    0.148180D-01    0.995747D+00   -0.744985D+01    0.124961D-01
   0   137    0.147355D-01    0.995866D+00    0.831509D+01    0.115400D-01
   0   138    0.146439D-01    0.996647D+00    0.491227D+01    0.964193D-02
   0   139    0.146929D-01    0.995806D+00    0.480040D+01    0.126293D-01
   0   140    0.147321D-01    0.995437D+00   -0.262272D+01    0.135777D-01
   0   141    0.141652D-01    0.995920D+00    0.110719D+00    0.124115D-01
   0   142    0.147378D-01    0.995961D+00   -0.156379D+01    0.116532D-01
   0   143    0.147680D-01    0.997548D+00    0.480922D+00    0.721300D-02
   0   144    0.145562D-01    0.998168D+00   -0.296523D+01    0.541034D-02
   0   145    0.144835D-01    0.997933D+00   -0.132066D+01    0.665643D-02
   0   146    0.147539D-01    0.997472D+00    0.596751D+00    0.714307D-02
   0   147    0.144474D-01    0.996901D+00    0.659463D+01    0.936257D-02
   0   148    0.144809D-01    0.996875D+00   -0.500670D+01    0.939121D-02
   0   149    0.145830D-01    0.997647D+00   -0.720031D+00    0.716733D-02
   0   150    0.142015D-01    0.997149D+00    0.518254D+01    0.854552D-02
   0   151    0.144997D-01    0.997547D+00    0.126614D+01    0.751664D-02
   0   152    0.142641D-01    0.996995D+00    0.560424D+01    0.794285D-02
   0   153    0.143713D-01    0.996753D+00    0.270613D-01    0.870670D-02
   0   154    0.146320D-01    0.997028D+00    0.382502D+01    0.858197D-02
   0   155    0.146975D-01    0.997263D+00    0.832616D+01    0.815293D-02
   0   156    0.150823D-01    0.997225D+00    0.770799D+01    0.804369D-02
   0   157    0.150011D-01    0.998536D+00   -0.354748D+01    0.405268D-02
   0   158    0.147634D-01    0.998772D+00    0.438237D+01    0.386659D-02
   0   159    0.144825D-01    0.998022D+00    0.846500D+01    0.537527D-02
   0   160    0.147394D-01    0.998766D+00    0.592582D+01    0.373805D-02
   0   161    0.146552D-01    0.998699D+00    0.600023D+01    0.395169D-02
   0   162    0.142564D-01    0.997647D+00    0.388439D+00    0.707603D-02
   0   163    0.143962D-01    0.997812D+00    0.770198D+01    0.628225D-02
   0   164    0.144167D-01    0.998413D+00   -0.226309D+01    0.406001D-02
   0   165    0.143363D-01    0.998231D+00   -0.631969D+01    0.499854D-02
   0   166    0.143703D-01    0.998719D+00    0.138988D+01    0.304019D-02
   0   167    0.146174D-01    0.999332D+00    0.438811D+01    0.133284D-02
   0   168    0.142900D-01    0.999095D+00   -0.603958D+01    0.202762D-02
   0   169    0.140515D-01    0.998634D+00    0.439038D+01    0.408400D-02
   0   170    0.142250D-01    0.998044D+00    0.698099D+01    0.501018D-02
   0   171    0.143028D-01    0.998052D+00   -0.887091D+00    0.507863D-02
   0   172    0.140518D-01    0.998023D+00    0.249299D+01    0.524537D-02
   0   173    0.142998D-01    0.997651D+00   -0.784139D+01    0.685489D-02
   0   174    0.140202D-01    0.998446D+00   -0.652944D+00    0.502737D-02
   0   175    0.141112D-01    0.998180D+00    0.150467D+01    0.487166D-02
   0   176    0.140247D-01    0.999187D+00    0.754465D+01    0.277142D-02
   0   177    0.143865D-01    0.998603D+00    0.110801D+01    0.382638D-02
   0   178    0.142096D-01    0.998282D+00   -0.319999D+01    0.538625D-02
   0   179    0.143123D-01    0.998503D+00    0.687832D+00    0.494471D-02
   0   180    0.142639D-01    0.998554D+00   -0.262138D+01    0.429796D-02
   0   181    0.140756D-01    0.998792D+00   -0.327668D+01    0.304988D-02
   0   182    0.143787D-01    0.999491D+00    0.188256D+01    0.139587D-02
   0   183    0.142551D-01    0.998752D+00    0.279653D+01    0.383867D-02
   0   184    0.144425D-01    0.997307D+00   -0.535156D+01    0.732702D-02
   0   185    0.144430D-01    0.998212D+00    0.142973D+01    0.533445D-02
   0   186    0.144294D-01    0.997539D+00   -0.258576D+01    0.719471D-02
   0   187    0.146320D-01    0.996938D+00   -0.148770D+01    0.884966D-02
   0   188    0.142173D-01    0.998205D+00   -0.231280D+01    0.522107D-02
   0   189    0.144416D-01    0.997499D+00   -0.711644D+01    0.651234D-02
   0   190    0.146961D-01    0.997958D+00   -0.808932D+01    0.590350D-02
   0   191    0.145727D-01    0.996907D+00   -0.724825D+01    0.845980D-02
   0   192    0.147597D-01    0.996820D+00   -0.144950D-02    0.837018D-02
   0   193    0.147758D-01    0.995960D+00    0.516836D+00    0.111340D-01
   0   194    0.144458D-01    0.996256D+00    0.223107D+01    0.104155D-01
   0   195    0.142252D-01    0.997422D+00   -0.761076D+01    0.694658D-02
   0   196    0.141138D-01    0.998215D+00    0.769077D+00    0.525685D-02
   0   197    0.138933D-01    0.997894D+00    0.143203D+01    0.567637D-02
   0   198    0.138879D-01    0.998161D+00    0.413809D+01    0.449928D-02
   0   199    0.139340D-01    0.998102D+00   -0.291810D+01    0.580561D-02
   0   200    0.136622D-01    0.997991D+00   -0.233789D+01    0.636368D-02
   0   201    0.141246D-01    0.997835D+00    0.471165D+01    0.627332D-02
   0   202    0.140436D-01    0.998612D+00    0.170389D+01    0.417967D-02
   0   203    0.140144D-01    0.998353D+00   -0.628417D+01    0.472366D-02
   0   204    0.142354D-01    0.998374D+00   -0.348450D+01    0.478216D-02
   0   205    0.146590D-01    0.998790D+00   -0.635450D+01    0.360588D-02
   0   206    0.147120D-01    0.997418D+00   -0.248341D+01    0.679326D-02
   0   207    0.152572D-01    0.996273D+00   -0.175903D+01    0.105046D-01
   0   208    0.161325D-01    0.994861D+00   -0.573584D+00    0.139322D-01
   0   209    0.164957D-01    0.992809D+00   -0.287623D+01    0.201830D-01
   0   210    0.180381D-01    0.990020D+00    0.487317D+00    0.289140D-01
   0   211    0.192713D-01    0.986154D+00   -0.959165D+01    0.385601D-01
   0   212    0.213316D-01    0.977343D+00    0.864434D+01    0.641813D-01
   0   213    0.248681D-01    0.961742D+00    0.366672D+01    0.105267D+00
   0   214    0.278118D-01    0.940786D+00   -0.186726D+02    0.153299D+00
   0   215    0.277848D-01    0.909303D+00   -0.124737D+02    0.211657D+00
   0   216    0.252404D-01    0.859300D+00   -0.560255D+01    0.273146D+00
   0   217    0.173500D-01    0.784835D+00    0.154028D+02    0.325623D+00
   0   218    0.992880D-02    0.688991D+00    0.819324D+01    0.361014D+00
   0   219    0.482157D-02    0.581417D+00    0.342541D+00    0.382905D+00
   0   220    0.211320D-02    0.473459D+00    0.112912D+01    0.396287D+00
   0   221    0.820767D-03    0.373448D+00    0.697688D+00    0.404693D+00
   0   222    0.312719D-03    0.286599D+00    0.116481D+00    0.410125D+00
   0   223    0.104719D-03    0.214789D+00    0.130297D+00    0.413726D+00
   0   224    0.350826D-04    0.157669D+00    0.452814D-01    0.416158D+00
   0   225    0.115422D-04    0.113650D+00    0.132177D-01    0.417822D+00
   0   226    0.357717D-05    0.806180D-01    0.719067D-03    0.418967D+00
   0   227    0.112464D-05    0.563863D-01    0.939406D-03    0.419756D+00
   0   228    0.344291D-06    0.389529D-01    0.275948D-03    0.420300D+00
   0   229    0.105956D-06    0.266195D-01    0.974031D-04    0.420673D+00
   0   230    0.316109D-07    0.180196D-01    0.709649D-05    0.420928D+00
   0   231    0.908249D-08    0.120977D-01    0.126885D-04    0.421100D+00
   0   232    0.268281D-08    0.806380D-02    0.221591D-05    0.421217D+00
   0   233    0.766695D-09    0.534143D-02    0.692131D-06    0.421295D+00
   0   234    0.228533D-09    0.351894D-02    0.131305D-06    0.421347D+00
   0   235    0.703706D-10    0.230733D-02    0.419123D-07    0.421382D+00
   0   236    0.205255D-10    0.150668D-02    0.292023D-07    0.421404D+00
   0   237    0.623998D-11    0.980334D-03    0.243324D-08    0.421419D+00
   0   238    0.188694D-11    0.635873D-03    0.169345D-08    0.421429D+00
   0   239    0.584545D-12    0.411324D-03    0.366422D-09    0.421435D+00
   0   240    0.165241D-12    0.265439D-03    0.199338D-09    0.421440D+00
   0   241    0.489167D-13    0.170939D-03    0.222101D-10    0.421442D+00
   0   242    0.136940D-13    0.109882D-03    0.170943D-10    0.421444D+00
   0   243    0.375185D-14    0.705205D-04    0.123787D-11    0.421445D+00
   0   244    0.107355D-14    0.451955D-04    0.156056D-12    0.421446D+00
   0   245    0.300621D-15    0.289293D-04    0.368803D-12    0.421446D+00
   0   246    0.801912D-16    0.184973D-04    0.447195D-13    0.421446D+00
   0   247    0.220448D-16    0.118158D-04    0.796611D-14    0.421447D+00
   0   248    0.595021D-17    0.754130D-05    0.564132D-14    0.421447D+00
   0   249    0.157997D-17    0.480956D-05    0.170003D-14    0.421447D+00
   0   250    0.405816D-18    0.306531D-05    0.454606D-15    0.421447D+00
   0   251    0.105396D-18    0.195249D-05    0.529755D-16    0.421447D+00
   0   252    0.274383D-19    0.124301D-05    0.268982D-16    0.421447D+00
   0   253    0.714103D-20    0.790961D-06    0.209174D-17    0.421447D+00
   0   254    0.185377D-20    0.503101D-06    0.208880D-17    0.421447D+00
   0   255    0.480522D-21    0.319883D-06    0.485312D-18    0.421447D+00
   0   256    0.127057D-21    0.203321D-06    0.159864D-18    0.421447D+00
   0   257    0.315449D-22    0.129193D-06    0.122582D-19    0.421447D+00
   0   258    0.784616D-23    0.820687D-07    0.283656D-20    0.421447D+00
   0   259    0.197099D-23    0.521202D-07    0.197615D-20    0.421447D+00
   0   260    0.490264D-24    0.330929D-07    0.579802D-21    0.421447D+00
   0   261    0.120728D-24    0.210074D-07    0.148067D-21    0.421447D+00
   0   262    0.303052D-25    0.133330D-07    0.392024D-22    0.421447D+00
   0   263    0.744503D-26    0.846064D-08    0.600595D-23    0.421447D+00
   0   264    0.191437D-26    0.536794D-08    0.154018D-23    0.421447D+00
   0   265    0.478130D-27    0.340522D-08    0.138949D-24    0.421447D+00
   0   266    0.116392D-27    0.215984D-08    0.409303D-25    0.421447D+00
   0   267    0.286124D-28    0.136975D-08    0.186415D-25    0.421447D+00
   0   268    0.704456D-29    0.868570D-09    0.969095D-26    0.421447D+00
   0   269    0.171827D-29    0.550704D-09    0.151788D-26    0.421447D+00
   0   270    0.421905D-30    0.349129D-09    0.529148D-27    0.421447D+00
   0   271    0.103154D-30    0.221313D-09    0.764648D-28    0.421447D+00
   0   272    0.260531D-31    0.140278D-09    0.180785D-28    0.421447D+00
   0   273    0.615851D-32    0.889060D-10    0.319143D-29    0.421447D+00
   0   274    0.147720D-32    0.563426D-10    0.198841D-29    0.421447D+00
   0   275    0.348256D-33    0.357033D-10    0.182211D-30    0.421447D+00
   0   276    0.856106D-34    0.226229D-10    0.420588D-31    0.421447D+00
   0   277    0.208439D-34    0.143336D-10    0.602192D-32    0.421447D+00
   0   278    0.516347D-35    0.908109D-11    0.732677D-32    0.421447D+00
   0   279    0.125855D-35    0.575298D-11    0.535429D-33    0.421447D+00
   0   280    0.298268D-36    0.364438D-11    0.338181D-33    0.421447D+00
   0   281    0.717470D-37    0.230850D-11    0.737867D-34    0.421447D+00
   0   282    0.171139D-37    0.146223D-11    0.224815D-34    0.421447D+00
   0   283    0.414782D-38    0.926152D-12    0.465890D-35    0.421447D+00
   0   284    0.996011D-39    0.586583D-12    0.577214D-36    0.421447D+00
   0   285    0.238833D-39    0.371500D-12    0.232105D-36    0.421447D+00
   0   286    0.566549D-40    0.235273D-12    0.527179D-37    0.421447D+00
   0   287    0.139961D-40    0.148995D-12    0.356555D-38    0.421447D+00
   0   288    0.338944D-41    0.943529D-13    0.376924D-38    0.421447D+00
   0   289    0.799547D-42    0.597484D-13    0.803154D-39    0.421447D+00
   0   290    0.194789D-42    0.378342D-13    0.211967D-39    0.421447D+00
   0   291    0.471890D-43    0.239570D-13    0.525635D-40    0.421447D+00
   0   292    0.114613D-43    0.151694D-13    0.147372D-40    0.421447D+00
   0   293    0.266707D-44    0.960496D-14    0.396532D-41    0.421447D+00
   0   294    0.637427D-45    0.608153D-14    0.249606D-42    0.421447D+00
   0   295    0.153956D-45    0.385054D-14    0.172130D-42    0.421447D+00
   0   296    0.361070D-46    0.243794D-14    0.330356D-43    0.421447D+00
   0   297    0.863903D-47    0.154354D-14    0.126614D-43    0.421447D+00
   0   298    0.212562D-47    0.977246D-15    0.124922D-44    0.421447D+00
   0   299    0.508601D-48    0.618707D-15    0.184741D-45    0.421447D+00
   0   300    0.122862D-48    0.391705D-15    0.138058D-45    0.421447D+00
   0   301    0.283689D-49    0.247987D-15    0.430285D-46    0.421447D+00
   0   302    0.682920D-50    0.156998D-15    0.863554D-47    0.421447D+00
   0   303    0.162275D-50    0.993925D-16    0.206170D-47    0.421447D+00
   0   304    0.393494D-51    0.629230D-16    0.275178D-48    0.421447D+00
   0   305    0.920586D-52    0.398346D-16    0.610338D-49    0.421447D+00
   0   306    0.215337D-52    0.252179D-16    0.118920D-49    0.421447D+00
   0   307    0.533046D-53    0.159645D-16    0.144855D-50    0.421447D+00
   0   308    0.123944D-53    0.101064D-16    0.878667D-51    0.421447D+00
   0   309    0.295358D-54    0.639788D-17    0.387560D-51    0.421447D+00
   0   310    0.709893D-55    0.405017D-17    0.487521D-52    0.421447D+00
   0   311    0.170514D-55    0.256394D-17    0.702314D-53    0.421447D+00
   0   312    0.390367D-56    0.162308D-17    0.192693D-53    0.421447D+00
   0   313    0.946109D-57    0.102747D-17    0.125491D-53    0.421447D+00
   0   314    0.232570D-57    0.650427D-18    0.300174D-54    0.421447D+00
   0   315    0.535914D-58    0.411742D-18    0.347579D-55    0.421447D+00
   0   316    0.127890D-58    0.260646D-18    0.335185D-56    0.421447D+00
   0   317    0.294692D-59    0.164996D-18    0.184684D-56    0.421447D+00
   0   318    0.694668D-60    0.104447D-18    0.598113D-57    0.421447D+00
   0   319    0.164999D-60    0.661172D-19    0.127611D-57    0.421447D+00
   0   320    0.403934D-61    0.418535D-19    0.549665D-58    0.421447D+00
   0   321    0.951273D-62    0.264940D-19    0.129482D-58    0.421447D+00
   0   322    0.224495D-62    0.167711D-19    0.331926D-59    0.421447D+00
   0   323    0.524510D-63    0.106163D-19    0.408046D-60    0.421447D+00
   0   324    0.129212D-63    0.672019D-20    0.113487D-60    0.421447D+00
   0   325    0.312936D-64    0.425390D-20    0.161087D-61    0.421447D+00
   0   326    0.732304D-65    0.269272D-20    0.103541D-61    0.421447D+00
   0   327    0.174414D-65    0.170448D-20    0.155761D-62    0.421447D+00
   0   328    0.421648D-66    0.107892D-20    0.231844D-63    0.421447D+00
   0   329    0.982090D-67    0.682939D-21    0.927348D-64    0.421447D+00
   0   330    0.222611D-67    0.432287D-21    0.307941D-64    0.421447D+00
   0   331    0.523005D-68    0.273626D-21    0.683210D-65    0.421447D+00
   0   332    0.124352D-68    0.173196D-21    0.968511D-66    0.421447D+00
   0   333    0.304085D-69    0.109626D-21    0.267763D-66    0.421447D+00
   0   334    0.707644D-70    0.693884D-22    0.961004D-67    0.421447D+00
   0   335    0.170038D-70    0.439191D-22    0.235432D-67    0.421447D+00
   0   336    0.402080D-71    0.277981D-22    0.397613D-68    0.421447D+00
   0   337    0.971956D-72    0.175942D-22    0.132456D-68    0.421447D+00
   0   338    0.240023D-72    0.111357D-22    0.106411D-69    0.421447D+00
   0   339    0.548401D-73    0.704793D-23    0.775433D-70    0.421447D+00
   0   340    0.129168D-73    0.446064D-23    0.570733D-71    0.421447D+00
   0   341    0.294704D-74    0.282310D-23    0.122841D-71    0.421447D+00
   0   342    0.708735D-75    0.178669D-23    0.639925D-72    0.421447D+00
   0   343    0.167248D-75    0.113074D-23    0.198793D-72    0.421447D+00
   0   344    0.398459D-76    0.715601D-24    0.171330D-73    0.421447D+00
   0   345    0.912889D-77    0.452867D-24    0.124234D-73    0.421447D+00
   0   346    0.216089D-77    0.286591D-24    0.110381D-74    0.421447D+00
   0   347    0.514090D-78    0.181362D-24    0.295095D-75    0.421447D+00
   0   348    0.120052D-78    0.114768D-24    0.179873D-75    0.421447D+00
   0   349    0.277473D-79    0.726250D-25    0.334505D-76    0.421447D+00
   0   350    0.641839D-80    0.459561D-25    0.965642D-77    0.421447D+00
   0   351    0.153739D-80    0.290798D-25    0.147391D-77    0.421447D+00
   0   352    0.361175D-81    0.184005D-25    0.322491D-78    0.421447D+00
   0   353    0.870211D-82    0.116429D-25    0.120933D-78    0.421447D+00
   0   354    0.200244D-82    0.736680D-26    0.257518D-79    0.421447D+00
   0   355    0.471125D-83    0.466111D-26    0.656922D-80    0.421447D+00
   0   356    0.112507D-83    0.294909D-26    0.122250D-80    0.421447D+00
   0   357    0.269802D-84    0.186585D-26    0.278879D-81    0.421447D+00
   0   358    0.628068D-85    0.118047D-26    0.192736D-82    0.421447D+00
   0   359    0.147617D-85    0.746833D-27    0.182872D-82    0.421447D+00
   0   360    0.341625D-86    0.472476D-27    0.265656D-83    0.421447D+00
   0   361    0.805937D-87    0.298899D-27    0.266928D-84    0.421447D+00
   0   362    0.196798D-87    0.189085D-27    0.171183D-84    0.421447D+00
   0   363    0.461841D-88    0.119612D-27    0.365737D-85    0.421447D+00
   0   364    0.110780D-88    0.756629D-28    0.667429D-86    0.421447D+00
   0   365    0.261215D-89    0.478604D-28    0.251695D-86    0.421447D+00
   0   366    0.624755D-90    0.302730D-28    0.683189D-87    0.421447D+00
   0   367    0.146496D-90    0.191478D-28    0.648760D-88    0.421447D+00
   0   368    0.347076D-91    0.121107D-28    0.330517D-88    0.421447D+00
   0   369    0.822651D-92    0.765951D-29    0.892858D-89    0.421447D+00
   0   370    0.187429D-92    0.484414D-29    0.255129D-89    0.421447D+00
   0   371    0.441407D-93    0.306348D-29    0.404885D-90    0.421447D+00
   0   372    0.102481D-93    0.193728D-29    0.101345D-90    0.421447D+00
   0   373    0.237487D-94    0.122504D-29    0.112521D-91    0.421447D+00
   0   374    0.561757D-95    0.774621D-30    0.594428D-92    0.421447D+00
   0   375    0.136520D-95    0.489784D-30    0.146414D-92    0.421447D+00
   0   376    0.313380D-96    0.309667D-30    0.202916D-93    0.421447D+00
   0   377    0.747352D-97    0.195777D-30    0.920161D-94    0.421447D+00
   0   378    0.173750D-97    0.123766D-30    0.119760D-94    0.421447D+00
   0   379    0.409182D-98    0.782367D-31    0.151658D-95    0.421447D+00
   0   380    0.969872D-99    0.494528D-31    0.534879D-96    0.421447D+00
   0   381    0.233538D-99    0.312564D-31    0.582744D-97    0.421447D+00
   0   382    0.551539-100    0.197539D-31    0.542061D-97    0.421447D+00
   0   383    0.131051-100    0.124833D-31    0.103688D-97    0.421447D+00
   0   384    0.304082-101    0.788801D-32    0.140472D-98    0.421447D+00
   0   385    0.714714-102    0.498385D-32    0.374048D-99    0.421447D+00
   0   386    0.168088-102    0.314860D-32    0.841370-100    0.421447D+00
   0   387    0.404240-103    0.198895D-32    0.559254-100    0.421447D+00
   0   388    0.908247-104    0.125626D-32    0.969279-101    0.421447D+00
   0   389    0.216875-104    0.793371D-33    0.194010-101    0.421447D+00
   0   390    0.529053-105    0.500960D-33    0.139992-102    0.421447D+00
   0   391    0.122790-105    0.316252D-33    0.183242-102    0.421447D+00
   0   392    0.294465-106    0.199574D-33    0.352029-103    0.421447D+00
   0   393    0.693717-107    0.125853D-33    0.374263-104    0.421447D+00
   0   394    0.159933-107    0.792380D-34    0.196514-104    0.421447D+00
   0   395    0.389017-108    0.496998D-34    0.219687-105    0.421447D+00
   0   396    0.893017-109    0.308796D-34    0.740747-106    0.421447D+00
   0   397    0.207521-109    0.187230D-34    0.263519-106    0.421447D+00