variables =  "IG"  "JG"  "PHI"  "Temp."  "Latent_heat"  "mm"
ZONE  I=  401  J=  101
   0     0    0.100000D+01    0.930809D+00    0.000000D+00    0.173402D+00
   0     1    0.100000D+01    0.930809D+00    0.000000D+00    0.173402D+00
   0     2    0.100000D+01    0.930934D+00    0.000000D+00    0.173159D+00
   0     3    0.100000D+01    0.931184D+00    0.000000D+00    0.172674D+00
   0     4    0.100000D+01    0.931558D+00    0.000000D+00    0.171946D+00
   0     5    0.100000D+01    0.932055D+00    0.000000D+00    0.170973D+00
   0     6    0.100000D+01    0.932675D+00    0.000000D+00    0.169754D+00
   0     7    0.100000D+01    0.933417D+00    0.000000D+00    0.168287D+00
   0     8    0.100000D+01    0.934278D+00    0.000000D+00    0.166571D+00
   0     9    0.100000D+01    0.935258D+00    0.000000D+00    0.164602D+00
   0    10    0.100000D+01    0.936353D+00    0.000000D+00    0.162379D+00
   0    11    0.100000D+01    0.937564D+00    0.000000D+00    0.159898D+00
   0    12    0.100000D+01    0.938886D+00    0.000000D+00    0.157156D+00
   0    13    0.100000D+01    0.940319D+00    0.000000D+00    0.154149D+00
   0    14    0.100000D+01    0.941858D+00    0.000000D+00    0.150874D+00
   0    15    0.100000D+01    0.943503D+00    0.000000D+00    0.147328D+00
   0    16    0.100000D+01    0.945250D+00    0.000000D+00    0.143505D+00
   0    17    0.100000D+01    0.947097D+00    0.000000D+00    0.139403D+00
   0    18    0.100000D+01    0.949041D+00    0.000000D+00    0.135017D+00
   0    19    0.100000D+01    0.951079D+00    0.000000D+00    0.130342D+00
   0    20    0.100000D+01    0.953210D+00    0.000000D+00    0.125375D+00
   0    21    0.100000D+01    0.955431D+00    0.000000D+00    0.120111D+00
   0    22    0.100000D+01    0.957740D+00    0.000000D+00    0.114545D+00
   0    23    0.100000D+01    0.960136D+00    0.000000D+00    0.108673D+00
   0    24    0.100000D+01    0.962615D+00    0.000000D+00    0.102492D+00
   0    25    0.100000D+01    0.965178D+00    0.799361D-10    0.959958D-01
   0    26    0.100000D+01    0.967824D+00   -0.106581D-09    0.891812D-01
   0    27    0.100000D+01    0.970552D+00   -0.532907D-09    0.820436D-01
   0    28    0.100000D+01    0.973363D+00   -0.139089D-07    0.745781D-01
   0    29    0.100000D+01    0.976258D+00   -0.985478D-07    0.667785D-01
   0    30    0.100000D+01    0.979241D+00    0.297948D-06    0.586366D-01
   0    31    0.100000D+01    0.982317D+00    0.817733D-06    0.501397D-01
   0    32    0.100000D+01    0.985494D+00    0.276737D-04    0.412683D-01
   0    33    0.100000D+01    0.988786D+00    0.255981D-03    0.319901D-01
   0    34    0.999997D+00    0.992217D+00    0.172756D-02    0.222513D-01
   0    35    0.999980D+00    0.995823D+00    0.953307D-02    0.119584D-01
   0    36    0.999873D+00    0.999668D+00   -0.502259D-01    0.950599D-03
   0    37    0.999217D+00    0.100387D+01   -0.388825D+00   -0.110719D-01
   0    38    0.995289D+00    0.100861D+01    0.839942D+00   -0.245690D-01
   0    39    0.971732D+00    0.101442D+01    0.258297D+00   -0.409405D-01
   0    40    0.837033D+00    0.102216D+01   -0.439828D+02   -0.638139D-01
   0    41    0.351179D+00    0.102826D+01   -0.734895D+02   -0.802058D-01
   0    42    0.839777D-01    0.102731D+01   -0.103323D+02   -0.778264D-01
   0    43    0.232754D-01    0.102129D+01    0.678476D+01   -0.608534D-01
   0    44    0.101387D-01    0.101761D+01    0.126508D+01   -0.496240D-01
   0    45    0.783745D-02    0.101355D+01    0.297370D+01   -0.387710D-01
   0    46    0.837335D-02    0.101194D+01    0.438145D+01   -0.340988D-01
   0    47    0.899780D-02    0.101013D+01    0.203832D+01   -0.292043D-01
   0    48    0.997766D-02    0.100835D+01    0.509869D+01   -0.240909D-01
   0    49    0.103720D-01    0.100658D+01    0.258985D+01   -0.192238D-01
   0    50    0.108528D-01    0.100542D+01   -0.943697D+00   -0.154269D-01
   0    51    0.111064D-01    0.100518D+01    0.421216D+01   -0.151920D-01
   0    52    0.113197D-01    0.100525D+01    0.461624D+01   -0.148505D-01
   0    53    0.120423D-01    0.100415D+01   -0.395735D+01   -0.117115D-01
   0    54    0.120023D-01    0.100355D+01    0.438537D+01   -0.979767D-02
   0    55    0.117312D-01    0.100276D+01   -0.565710D+01   -0.832214D-02
   0    56    0.122430D-01    0.100287D+01    0.133048D+01   -0.823102D-02
   0    57    0.126502D-01    0.100294D+01   -0.151178D+01   -0.876968D-02
   0    58    0.129953D-01    0.100232D+01   -0.139036D+01   -0.691516D-02
   0    59    0.128051D-01    0.100086D+01   -0.750020D+01   -0.263224D-02
   0    60    0.130243D-01    0.100092D+01   -0.796517D+01   -0.262250D-02
   0    61    0.129096D-01    0.100046D+01   -0.201351D+01   -0.187010D-02
   0    62    0.134073D-01    0.100006D+01   -0.221788D+01    0.158748D-04
   0    63    0.131831D-01    0.999530D+00    0.753298D+01    0.133942D-02
   0    64    0.133756D-01    0.100034D+01   -0.519352D+01   -0.155305D-02
   0    65    0.140232D-01    0.999608D+00   -0.347931D+01    0.956043D-03
   0    66    0.133687D-01    0.999681D+00    0.598135D+00    0.913032D-03
   0    67    0.137059D-01    0.999710D+00   -0.277756D+00    0.125630D-02
   0    68    0.139520D-01    0.998301D+00    0.283056D+01    0.567546D-02
   0    69    0.140916D-01    0.998244D+00   -0.812312D+00    0.554299D-02
   0    70    0.143603D-01    0.998182D+00   -0.465050D+01    0.461207D-02
   0    71    0.146337D-01    0.997356D+00   -0.798547D+01    0.755052D-02
   0    72    0.149401D-01    0.997271D+00   -0.593816D+01    0.714924D-02
   0    73    0.149037D-01    0.998080D+00   -0.152885D+00    0.499880D-02
   0    74    0.144021D-01    0.997358D+00    0.742413D+01    0.721294D-02
   0    75    0.145761D-01    0.997461D+00    0.606536D+01    0.758944D-02
   0    76    0.149134D-01    0.998079D+00   -0.412945D+01    0.604305D-02
   0    77    0.148388D-01    0.998468D+00    0.807327D+01    0.467585D-02
   0    78    0.148447D-01    0.998057D+00   -0.103774D+01    0.541497D-02
   0    79    0.152961D-01    0.997435D+00    0.449052D+01    0.716999D-02
   0    80    0.150277D-01    0.996848D+00    0.355135D+01    0.881008D-02
   0    81    0.145941D-01    0.997141D+00    0.333493D+01    0.847006D-02
   0    82    0.150805D-01    0.996651D+00   -0.654114D+01    0.967238D-02
   0    83    0.153573D-01    0.995686D+00   -0.343358D+01    0.130011D-01
   0    84    0.150776D-01    0.995482D+00    0.571003D+01    0.131149D-01
   0    85    0.153845D-01    0.995436D+00    0.277095D+01    0.124174D-01
   0    86    0.155273D-01    0.996918D+00    0.472916D+01    0.916675D-02
   0    87    0.154064D-01    0.997240D+00   -0.587485D+01    0.833811D-02
   0    88    0.154760D-01    0.997545D+00   -0.363365D+01    0.740195D-02
   0    89    0.157132D-01    0.997964D+00   -0.655069D+01    0.504511D-02
   0    90    0.156380D-01    0.996907D+00   -0.754699D+01    0.806388D-02
   0    91    0.153760D-01    0.996555D+00   -0.763932D+01    0.968272D-02
   0    92    0.150527D-01    0.997541D+00   -0.533065D+01    0.643553D-02
   0    93    0.152973D-01    0.997216D+00    0.678660D+00    0.754615D-02
   0    94    0.154008D-01    0.996990D+00   -0.546545D-02    0.804710D-02
   0    95    0.149665D-01    0.997421D+00    0.373792D+01    0.703250D-02
   0    96    0.152605D-01    0.996158D+00   -0.620246D+01    0.119482D-01
   0    97    0.157261D-01    0.996451D+00    0.744881D+01    0.105822D-01
   0    98    0.154060D-01    0.996009D+00    0.354782D+01    0.119525D-01
   0    99    0.157911D-01    0.996364D+00   -0.388386D+01    0.110730D-01
   0   100    0.157103D-01    0.996399D+00    0.280754D+01    0.996692D-02
   0   101    0.152037D-01    0.996470D+00   -0.377760D+01    0.102262D-01
   0   102    0.153427D-01    0.996797D+00   -0.235980D+01    0.902125D-02
   0   103    0.159144D-01    0.995545D+00    0.154745D+01    0.132170D-01
   0   104    0.158045D-01    0.995580D+00   -0.523440D+00    0.120194D-01
   0   105    0.151819D-01    0.995537D+00    0.138664D+01    0.121113D-01
   0   106    0.151777D-01    0.995762D+00    0.220158D+01    0.121537D-01
   0   107    0.155189D-01    0.996277D+00    0.390887D+01    0.993953D-02
   0   108    0.154502D-01    0.996381D+00   -0.195932D+00    0.999076D-02
   0   109    0.153218D-01    0.995852D+00   -0.555052D+01    0.119043D-01
   0   110    0.154906D-01    0.995350D+00    0.851629D+01    0.129797D-01
   0   111    0.153735D-01    0.995216D+00   -0.108075D+01    0.130090D-01
   0   112    0.154837D-01    0.995163D+00    0.623063D+01    0.140856D-01
   0   113    0.153727D-01    0.993849D+00   -0.812176D+01    0.177219D-01
   0   114    0.151597D-01    0.994981D+00   -0.787733D+01    0.152277D-01
   0   115    0.156203D-01    0.996262D+00   -0.778062D+01    0.990776D-02
   0   116    0.155670D-01    0.997056D+00   -0.455594D+01    0.818067D-02
   0   117    0.153297D-01    0.995894D+00    0.187360D+01    0.111432D-01
   0   118    0.154246D-01    0.996252D+00   -0.768917D+01    0.998094D-02
   0   119    0.159787D-01    0.995144D+00   -0.855567D+01    0.132775D-01
   0   120    0.155423D-01    0.995245D+00    0.231847D+01    0.133324D-01
   0   121    0.158494D-01    0.995700D+00   -0.982916D+01    0.115401D-01
   0   122    0.150776D-01    0.996440D+00    0.640453D+01    0.103428D-01
   0   123    0.154252D-01    0.995460D+00   -0.416495D+01    0.126203D-01
   0   124    0.152186D-01    0.995637D+00   -0.859277D+01    0.126126D-01
   0   125    0.152647D-01    0.996177D+00    0.880170D-01    0.109743D-01
   0   126    0.155699D-01    0.995423D+00   -0.366208D+01    0.124925D-01
   0   127    0.156362D-01    0.995701D+00   -0.750216D+01    0.129911D-01
   0   128    0.154994D-01    0.994613D+00    0.793923D+01    0.147963D-01
   0   129    0.156496D-01    0.996279D+00   -0.267655D+01    0.111448D-01
   0   130    0.154719D-01    0.996181D+00    0.585548D+01    0.111062D-01
   0   131    0.151329D-01    0.996133D+00    0.104856D+01    0.109331D-01
   0   132    0.152453D-01    0.995857D+00    0.622507D+01    0.124921D-01
   0   133    0.152480D-01    0.996011D+00    0.379995D+01    0.118468D-01
   0   134    0.153077D-01    0.997834D+00   -0.184456D+01    0.625020D-02
   0   135    0.153734D-01    0.996863D+00   -0.123719D+01    0.910425D-02
   0   136    0.152685D-01    0.995469D+00   -0.153732D+01    0.123877D-01
   0   137    0.152695D-01    0.995021D+00    0.279129D+01    0.142607D-01
   0   138    0.153803D-01    0.995246D+00   -0.260534D+01    0.136972D-01
   0   139    0.152142D-01    0.994353D+00    0.311534D+00    0.159169D-01
   0   140    0.154089D-01    0.995277D+00   -0.616169D+01    0.130336D-01
   0   141    0.156898D-01    0.995334D+00   -0.794519D+01    0.135493D-01
   0   142    0.156565D-01    0.996437D+00   -0.407202D+01    0.102724D-01
   0   143    0.152036D-01    0.996782D+00    0.832874D+01    0.944998D-02
   0   144    0.153525D-01    0.995999D+00   -0.240203D+01    0.108712D-01
   0   145    0.154566D-01    0.996517D+00   -0.762365D+01    0.917431D-02
   0   146    0.151639D-01    0.997322D+00    0.480477D+00    0.782831D-02
   0   147    0.155177D-01    0.997244D+00    0.570570D+01    0.807192D-02
   0   148    0.151896D-01    0.996447D+00   -0.563339D+01    0.945925D-02
   0   149    0.153857D-01    0.996826D+00   -0.562879D+01    0.888217D-02
   0   150    0.157371D-01    0.997037D+00    0.878778D+01    0.858638D-02
   0   151    0.152076D-01    0.997294D+00   -0.662279D+01    0.834473D-02
   0   152    0.158421D-01    0.997136D+00   -0.404426D+01    0.769414D-02
   0   153    0.154722D-01    0.997729D+00    0.387665D+01    0.603144D-02
   0   154    0.153871D-01    0.997878D+00    0.361644D+01    0.598991D-02
   0   155    0.153065D-01    0.997343D+00   -0.150298D+01    0.826540D-02
   0   156    0.152981D-01    0.996261D+00   -0.711432D+01    0.102604D-01
   0   157    0.152279D-01    0.995624D+00   -0.986095D+01    0.131606D-01
   0   158    0.149388D-01    0.996358D+00    0.925344D+01    0.102089D-01
   0   159    0.152718D-01    0.996913D+00   -0.613703D+01    0.829598D-02
   0   160    0.152724D-01    0.996753D+00    0.525718D+01    0.883546D-02
   0   161    0.152473D-01    0.996453D+00    0.398345D+01    0.106733D-01
   0   162    0.153741D-01    0.996849D+00   -0.371202D+01    0.866784D-02
   0   163    0.152625D-01    0.996760D+00   -0.370547D+01    0.891526D-02
   0   164    0.157740D-01    0.996615D+00   -0.167447D+01    0.959100D-02
   0   165    0.152603D-01    0.996713D+00    0.711741D+01    0.900853D-02
   0   166    0.149902D-01    0.997717D+00    0.322088D+01    0.709437D-02
   0   167    0.150554D-01    0.997106D+00    0.862557D+01    0.903687D-02
   0   168    0.149413D-01    0.996970D+00   -0.254285D+01    0.914492D-02
   0   169    0.147690D-01    0.996458D+00   -0.462677D+01    0.100229D-01
   0   170    0.147598D-01    0.997540D+00   -0.326987D+01    0.773815D-02
   0   171    0.146683D-01    0.997722D+00   -0.794236D+01    0.716234D-02
   0   172    0.149140D-01    0.995755D+00   -0.476530D+01    0.126466D-01
   0   173    0.152080D-01    0.996393D+00   -0.404722D+00    0.100875D-01
   0   174    0.152876D-01    0.994880D+00    0.304519D+01    0.143223D-01
   0   175    0.151967D-01    0.995949D+00    0.745099D+01    0.109937D-01
   0   176    0.151489D-01    0.996305D+00   -0.354205D+01    0.105239D-01
   0   177    0.152166D-01    0.996252D+00    0.776051D+01    0.109892D-01
   0   178    0.151814D-01    0.997223D+00    0.236395D+01    0.757713D-02
   0   179    0.147178D-01    0.996505D+00   -0.798740D+01    0.104473D-01
   0   180    0.150263D-01    0.997408D+00    0.686613D+01    0.806951D-02
   0   181    0.148712D-01    0.997385D+00   -0.351568D+01    0.747047D-02
   0   182    0.150321D-01    0.998423D+00   -0.131592D+01    0.503434D-02
   0   183    0.150173D-01    0.998316D+00    0.834351D+01    0.397791D-02
   0   184    0.148498D-01    0.997633D+00   -0.791436D+00    0.616569D-02
   0   185    0.149485D-01    0.997211D+00    0.628218D+01    0.851264D-02
   0   186    0.148941D-01    0.996392D+00    0.352896D+00    0.103422D-01
   0   187    0.150649D-01    0.997037D+00   -0.265810D+01    0.896700D-02
   0   188    0.145146D-01    0.997191D+00    0.730297D+01    0.845977D-02
   0   189    0.148643D-01    0.996183D+00    0.250240D+01    0.114808D-01
   0   190    0.150548D-01    0.997088D+00   -0.726050D+01    0.885989D-02
   0   191    0.148177D-01    0.998214D+00    0.512847D+00    0.547962D-02
   0   192    0.150063D-01    0.997445D+00    0.765279D+01    0.759655D-02
   0   193    0.151418D-01    0.997965D+00    0.306720D+01    0.653732D-02
   0   194    0.149483D-01    0.997769D+00   -0.590472D+01    0.586026D-02
   0   195    0.147866D-01    0.997405D+00   -0.408586D+01    0.785664D-02
   0   196    0.149718D-01    0.997165D+00   -0.779681D+01    0.765387D-02
   0   197    0.149663D-01    0.997650D+00   -0.133344D+01    0.650478D-02
   0   198    0.148563D-01    0.997681D+00   -0.312875D+01    0.735555D-02
   0   199    0.151449D-01    0.996395D+00    0.291673D+01    0.982389D-02
   0   200    0.148464D-01    0.997292D+00   -0.133382D+01    0.803958D-02
   0   201    0.148555D-01    0.996607D+00    0.361593D+01    0.917947D-02
   0   202    0.147060D-01    0.997494D+00    0.655055D+01    0.760951D-02
   0   203    0.142127D-01    0.997560D+00    0.771094D+01    0.702143D-02
   0   204    0.148425D-01    0.997949D+00    0.173833D+01    0.585485D-02
   0   205    0.149340D-01    0.999209D+00   -0.548281D+01    0.289378D-02
   0   206    0.147122D-01    0.997923D+00    0.733660D+01    0.594620D-02
   0   207    0.148969D-01    0.997354D+00    0.624552D+01    0.749076D-02
   0   208    0.144893D-01    0.996899D+00   -0.452593D+01    0.857643D-02
   0   209    0.144856D-01    0.996415D+00    0.860665D+01    0.940399D-02
   0   210    0.143109D-01    0.995885D+00    0.501357D+01    0.121359D-01
   0   211    0.142878D-01    0.996307D+00    0.760885D+01    0.992043D-02
   0   212    0.148304D-01    0.997459D+00    0.466540D+01    0.734388D-02
   0   213    0.143841D-01    0.996381D+00    0.611882D+01    0.111638D-01
   0   214    0.143665D-01    0.997464D+00   -0.495368D+00    0.773510D-02
   0   215    0.143522D-01    0.997343D+00   -0.421214D+01    0.805334D-02
   0   216    0.144762D-01    0.997182D+00    0.452695D+01    0.827081D-02
   0   217    0.144096D-01    0.998898D+00    0.537786D+00    0.317414D-02
   0   218    0.147238D-01    0.997717D+00    0.469997D+01    0.629200D-02
   0   219    0.144788D-01    0.997171D+00    0.169394D+01    0.776775D-02
   0   220    0.145534D-01    0.997840D+00   -0.252215D+01    0.562022D-02
   0   221    0.144697D-01    0.997987D+00    0.964592D+00    0.657261D-02
   0   222    0.145030D-01    0.997296D+00   -0.696927D+01    0.770823D-02
   0   223    0.144861D-01    0.998396D+00   -0.596448D+01    0.517769D-02
   0   224    0.140570D-01    0.998591D+00   -0.425863D+01    0.333620D-02
   0   225    0.142430D-01    0.997559D+00   -0.798187D+01    0.703627D-02
   0   226    0.140893D-01    0.996957D+00    0.383170D+00    0.899621D-02
   0   227    0.142315D-01    0.996643D+00    0.105655D+00    0.909134D-02
   0   228    0.144700D-01    0.997438D+00    0.102270D+01    0.723892D-02
   0   229    0.145386D-01    0.997963D+00    0.182915D+01    0.595643D-02
   0   230    0.144775D-01    0.997500D+00    0.329616D+01    0.642725D-02
   0   231    0.143968D-01    0.997472D+00    0.258675D+01    0.684053D-02
   0   232    0.140570D-01    0.998475D+00   -0.262129D+00    0.428454D-02
   0   233    0.145204D-01    0.997991D+00   -0.631411D+01    0.513923D-02
   0   234    0.142097D-01    0.997457D+00   -0.540873D+01    0.687262D-02
   0   235    0.143302D-01    0.997089D+00   -0.719504D+01    0.822633D-02
   0   236    0.145953D-01    0.997962D+00   -0.675482D+01    0.633469D-02
   0   237    0.148140D-01    0.998351D+00    0.567758D+01    0.408392D-02
   0   238    0.140508D-01    0.999176D+00   -0.664207D+01    0.215959D-02
   0   239    0.141536D-01    0.998778D+00    0.552303D+01    0.288654D-02
   0   240    0.141862D-01    0.998768D+00    0.355864D+01    0.284982D-02
   0   241    0.143958D-01    0.997446D+00    0.293004D+01    0.720660D-02
   0   242    0.145156D-01    0.996790D+00   -0.291638D+01    0.859040D-02
   0   243    0.139232D-01    0.996842D+00   -0.567200D+01    0.886794D-02
   0   244    0.139443D-01    0.998018D+00   -0.619473D+01    0.577520D-02
   0   245    0.145262D-01    0.997223D+00   -0.109801D+01    0.777884D-02
   0   246    0.146075D-01    0.997473D+00    0.247921D+01    0.759852D-02
   0   247    0.146114D-01    0.997435D+00    0.745978D+00    0.686658D-02
   0   248    0.142703D-01    0.998026D+00   -0.220461D+01    0.532886D-02
   0   249    0.143016D-01    0.997835D+00   -0.673771D+01    0.615055D-02
   0   250    0.143523D-01    0.997670D+00    0.578108D+01    0.689620D-02
   0   251    0.142143D-01    0.997344D+00   -0.703784D+01    0.699471D-02
   0   252    0.137930D-01    0.998028D+00   -0.434975D+01    0.539244D-02
   0   253    0.141429D-01    0.998403D+00    0.322329D+01    0.419581D-02
   0   254    0.142307D-01    0.998537D+00   -0.211680D+01    0.369349D-02
   0   255    0.141790D-01    0.999050D+00   -0.847373D-01    0.334558D-02
   0   256    0.140076D-01    0.997645D+00    0.880207D+00    0.721370D-02
   0   257    0.140374D-01    0.997982D+00   -0.109904D+01    0.628410D-02
   0   258    0.142966D-01    0.998787D+00   -0.472851D-01    0.376865D-02
   0   259    0.136339D-01    0.998869D+00   -0.788101D+00    0.398936D-02
   0   260    0.140418D-01    0.998696D+00   -0.225651D+01    0.364821D-02
   0   261    0.139411D-01    0.998632D+00    0.486372D+01    0.325091D-02
   0   262    0.140036D-01    0.998585D+00   -0.311091D+01    0.379407D-02
   0   263    0.140925D-01    0.999523D+00   -0.260034D+01    0.545641D-03
   0   264    0.140270D-01    0.999125D+00   -0.141475D+00    0.216314D-02
   0   265    0.140313D-01    0.998671D+00    0.449146D+01    0.449816D-02
   0   266    0.140803D-01    0.999162D+00    0.420728D+01    0.266021D-02
   0   267    0.140925D-01    0.999840D+00   -0.557064D+01    0.981394D-03
   0   268    0.138668D-01    0.999788D+00    0.346317D+00   -0.267546D-03
   0   269    0.139409D-01    0.999110D+00   -0.806105D+01    0.247407D-02
   0   270    0.142803D-01    0.999809D+00    0.515357D+00   -0.429846D-04
   0   271    0.140391D-01    0.998894D+00    0.324439D+01    0.285879D-02
   0   272    0.141798D-01    0.998748D+00   -0.272155D+01    0.333179D-02
   0   273    0.135418D-01    0.998570D+00    0.653621D+01    0.396322D-02
   0   274    0.133299D-01    0.998715D+00   -0.483560D+01    0.407928D-02
   0   275    0.139773D-01    0.998717D+00    0.383388D+01    0.325745D-02
   0   276    0.139680D-01    0.999536D+00    0.406882D+01    0.162848D-02
   0   277    0.140657D-01    0.999450D+00    0.370281D+01    0.192482D-02
   0   278    0.138913D-01    0.999099D+00   -0.755005D+01    0.306235D-02
   0   279    0.139749D-01    0.998857D+00    0.430405D+01    0.378189D-02
   0   280    0.141896D-01    0.999228D+00   -0.560392D+00    0.179959D-02
   0   281    0.140930D-01    0.998822D+00   -0.180604D+01    0.367525D-02
   0   282    0.137873D-01    0.998910D+00   -0.479107D+00    0.351699D-02
   0   283    0.132553D-01    0.999123D+00    0.432211D+01    0.284944D-02
   0   284    0.140800D-01    0.999122D+00    0.612745D+01    0.295913D-02
   0   285    0.143362D-01    0.998422D+00   -0.566127D+01    0.414320D-02
   0   286    0.139903D-01    0.998217D+00   -0.213144D+01    0.462680D-02
   0   287    0.138293D-01    0.998180D+00    0.876027D+00    0.479024D-02
   0   288    0.140895D-01    0.998962D+00    0.409530D+01    0.315856D-02
   0   289    0.139794D-01    0.998362D+00    0.523242D+01    0.419076D-02
   0   290    0.141093D-01    0.997900D+00    0.430826D+01    0.557770D-02
   0   291    0.141023D-01    0.997517D+00    0.390553D+01    0.670802D-02
   0   292    0.138610D-01    0.998949D+00   -0.404014D+01    0.326930D-02
   0   293    0.140261D-01    0.998354D+00   -0.339940D+01    0.474683D-02
   0   294    0.141996D-01    0.998079D+00   -0.377166D+01    0.518242D-02
   0   295    0.142750D-01    0.998183D+00    0.297701D+01    0.457503D-02
   0   296    0.142581D-01    0.997709D+00    0.123096D+01    0.685275D-02
   0   297    0.144929D-01    0.996830D+00   -0.706892D+01    0.875972D-02
   0   298    0.144931D-01    0.997936D+00    0.284814D+00    0.584022D-02
   0   299    0.141921D-01    0.997345D+00    0.595662D+01    0.778719D-02
   0   300    0.146265D-01    0.996666D+00   -0.609116D+01    0.932538D-02
   0   301    0.148204D-01    0.996921D+00    0.685853D+01    0.932637D-02
   0   302    0.150067D-01    0.997823D+00    0.378293D+01    0.662872D-02
   0   303    0.149876D-01    0.997982D+00   -0.299599D+01    0.602369D-02
   0   304    0.148157D-01    0.998075D+00    0.245262D+01    0.624363D-02
   0   305    0.145470D-01    0.997731D+00    0.973603D+00    0.728709D-02
   0   306    0.149148D-01    0.996486D+00    0.528897D+01    0.964508D-02
   0   307    0.147767D-01    0.997023D+00   -0.403704D+01    0.869096D-02
   0   308    0.151553D-01    0.995457D+00   -0.108022D+01    0.128274D-01
   0   309    0.153225D-01    0.993781D+00    0.226071D+01    0.178068D-01
   0   310    0.157947D-01    0.993682D+00    0.513417D+01    0.183043D-01
   0   311    0.164815D-01    0.990908D+00   -0.160347D+01    0.265965D-01
   0   312    0.179083D-01    0.986070D+00   -0.486156D+01    0.393485D-01
   0   313    0.194636D-01    0.978160D+00   -0.485856D+01    0.614010D-01
   0   314    0.228084D-01    0.967315D+00   -0.150367D+02    0.912473D-01
   0   315    0.264467D-01    0.950099D+00    0.113399D+02    0.131901D+00
   0   316    0.291279D-01    0.920336D+00   -0.723360D+01    0.193003D+00
   0   317    0.265965D-01    0.874241D+00    0.368610D+01    0.257858D+00
   0   318    0.200718D-01    0.804894D+00    0.164031D+01    0.314540D+00
   0   319    0.122375D-01    0.714030D+00    0.437358D+01    0.353826D+00
   0   320    0.606907D-02    0.607238D+00    0.126900D+01    0.378671D+00
   0   321    0.259171D-02    0.496669D+00    0.106183D+01    0.393875D+00
   0   322    0.103004D-02    0.393055D+00    0.680754D+00    0.403257D+00
   0   323    0.381445D-03    0.302230D+00    0.307553D+00    0.409246D+00
   0   324    0.133671D-03    0.226703D+00    0.157566D+00    0.413174D+00
   0   325    0.437537D-04    0.166442D+00    0.393054D-01    0.415806D+00
   0   326    0.143208D-04    0.119931D+00    0.251474D-02    0.417595D+00
   0   327    0.464910D-05    0.850136D-01    0.514906D-02    0.418819D+00
   0   328    0.144326D-05    0.594045D-01    0.553472D-03    0.419660D+00
   0   329    0.445312D-06    0.409921D-01    0.439122D-03    0.420238D+00
   0   330    0.131360D-06    0.279780D-01    0.129577D-03    0.420632D+00
   0   331    0.375443D-07    0.189136D-01    0.200462D-04    0.420901D+00
   0   332    0.110847D-07    0.126795D-01    0.704862D-05    0.421084D+00
   0   333    0.317268D-08    0.843861D-02    0.388181D-05    0.421206D+00
   0   334    0.881094D-09    0.558067D-02    0.104182D-05    0.421288D+00
   0   335    0.260531D-09    0.367035D-02    0.325393D-06    0.421343D+00
   0   336    0.821136D-10    0.240239D-02    0.573456D-07    0.421379D+00
   0   337    0.251717D-10    0.156592D-02    0.888929D-08    0.421403D+00
   0   338    0.739893D-11    0.101699D-02    0.584987D-08    0.421418D+00
   0   339    0.233649D-11    0.658407D-03    0.100634D-08    0.421428D+00
   0   340    0.697226D-12    0.425086D-03    0.756343D-10    0.421435D+00
   0   341    0.197736D-12    0.273790D-03    0.204954D-09    0.421439D+00
   0   342    0.574750D-13    0.175976D-03    0.383386D-10    0.421442D+00
   0   343    0.165835D-13    0.112901D-03    0.129597D-10    0.421444D+00
   0   344    0.457128D-14    0.723194D-04    0.210023D-11    0.421445D+00
   0   345    0.126772D-14    0.462604D-04    0.813198D-12    0.421446D+00
   0   346    0.337959D-15    0.295556D-04    0.103362D-12    0.421446D+00
   0   347    0.916491D-16    0.188631D-04    0.131928D-12    0.421446D+00
   0   348    0.247572D-16    0.120277D-04    0.146662D-13    0.421447D+00
   0   349    0.664954D-17    0.766314D-05    0.643602D-14    0.421447D+00
   0   350    0.181664D-17    0.487892D-05    0.117305D-14    0.421447D+00
   0   351    0.484020D-18    0.310437D-05    0.276709D-15    0.421447D+00
   0   352    0.124647D-18    0.197419D-05    0.116413D-15    0.421447D+00
   0   353    0.330653D-19    0.125488D-05    0.444822D-16    0.421447D+00
   0   354    0.844126D-20    0.797316D-06    0.696239D-17    0.421447D+00
   0   355    0.218479D-20    0.506410D-06    0.116756D-17    0.421447D+00
   0   356    0.551591D-21    0.321539D-06    0.596239D-18    0.421447D+00
   0   357    0.140736D-21    0.204099D-06    0.188491D-18    0.421447D+00
   0   358    0.353892D-22    0.129520D-06    0.167489D-19    0.421447D+00
   0   359    0.892251D-23    0.821742D-07    0.100819D-19    0.421447D+00
   0   360    0.230033D-23    0.521250D-07    0.307958D-20    0.421447D+00
   0   361    0.574161D-24    0.330581D-07    0.407151D-21    0.421447D+00
   0   362    0.142005D-24    0.209623D-07    0.825965D-22    0.421447D+00
   0   363    0.349782D-25    0.132903D-07    0.355765D-22    0.421447D+00
   0   364    0.864946D-26    0.842506D-08    0.116710D-22    0.421447D+00
   0   365    0.214342D-26    0.534019D-08    0.797545D-24    0.421447D+00
   0   366    0.547221D-27    0.338448D-08    0.681861D-24    0.421447D+00
   0   367    0.132020D-27    0.214477D-08    0.924121D-25    0.421447D+00
   0   368    0.319442D-28    0.135902D-08    0.296488D-25    0.421447D+00
   0   369    0.789187D-29    0.861061D-09    0.652021D-26    0.421447D+00
   0   370    0.193283D-29    0.545511D-09    0.216086D-26    0.421447D+00
   0   371    0.472984D-30    0.345572D-09    0.327646D-27    0.421447D+00
   0   372    0.109258D-30    0.218897D-09    0.904072D-28    0.421447D+00
   0   373    0.265596D-31    0.138647D-09    0.376742D-28    0.421447D+00
   0   374    0.659867D-32    0.878113D-10    0.376762D-29    0.421447D+00
   0   375    0.161318D-32    0.556112D-10    0.225382D-29    0.421447D+00
   0   376    0.394881D-33    0.352165D-10    0.103260D-30    0.421447D+00
   0   377    0.937843D-34    0.223000D-10    0.898843D-31    0.421447D+00
   0   378    0.227106D-34    0.141201D-10    0.326850D-31    0.421447D+00
   0   379    0.541045D-35    0.894019D-11    0.377160D-32    0.421447D+00
   0   380    0.132230D-35    0.566021D-11    0.146950D-32    0.421447D+00
   0   381    0.317379D-36    0.358342D-11    0.409536D-33    0.421447D+00
   0   382    0.737615D-37    0.226851D-11    0.731594D-34    0.421447D+00
   0   383    0.181448D-37    0.143603D-11    0.591431D-35    0.421447D+00
   0   384    0.442638D-38    0.909011D-12    0.354977D-35    0.421447D+00
   0   385    0.107257D-38    0.575382D-12    0.811989D-36    0.421447D+00
   0   386    0.257321D-39    0.364189D-12    0.895355D-37    0.421447D+00
   0   387    0.602458D-40    0.230505D-12    0.898078D-37    0.421447D+00
   0   388    0.139801D-40    0.145887D-12    0.513758D-38    0.421447D+00
   0   389    0.340415D-41    0.923276D-13    0.105390D-38    0.421447D+00
   0   390    0.825373D-42    0.584277D-13    0.117374D-38    0.421447D+00
   0   391    0.202366D-42    0.369703D-13    0.137648D-39    0.421447D+00
   0   392    0.482804D-43    0.233870D-13    0.180542D-40    0.421447D+00
   0   393    0.116717D-43    0.147852D-13    0.486437D-41    0.421447D+00
   0   394    0.288325D-44    0.933309D-14    0.150260D-41    0.421447D+00
   0   395    0.694579D-45    0.586940D-14    0.284599D-42    0.421447D+00
   0   396    0.161729D-45    0.365628D-14    0.225740D-42    0.421447D+00
   0   397    0.378588D-46    0.222224D-14    0.568289D-43    0.421447D+00