variables =  "IG"  "JG"  "PHI"  "Temp."  "Latent_heat"  "mm"
ZONE  I=  401  J=  101
   0     0    0.100000D+01    0.663772D+00    0.000000D+00    0.367188D+00
   0     1    0.100000D+01    0.663772D+00    0.000000D+00    0.367188D+00
   0     2    0.100000D+01    0.665890D+00    0.000000D+00    0.366692D+00
   0     3    0.100000D+01    0.670096D+00    0.000000D+00    0.365690D+00
   0     4    0.100000D+01    0.676328D+00    0.000000D+00    0.364161D+00
   0     5    0.100000D+01    0.684496D+00    0.000000D+00    0.362074D+00
   0     6    0.100000D+01    0.694484D+00    0.000000D+00    0.359384D+00
   0     7    0.100000D+01    0.706152D+00    0.000000D+00    0.356034D+00
   0     8    0.100000D+01    0.719340D+00    0.000000D+00    0.351949D+00
   0     9    0.100000D+01    0.733872D+00    0.000000D+00    0.347033D+00
   0    10    0.100000D+01    0.749562D+00    0.000000D+00    0.341170D+00
   0    11    0.100000D+01    0.766215D+00    0.186517D-09    0.334211D+00
   0    12    0.100000D+01    0.783638D+00    0.972555D-09    0.325973D+00
   0    13    0.100000D+01    0.801643D+00    0.137224D-07    0.316229D+00
   0    14    0.100000D+01    0.820054D+00    0.193912D-06    0.304691D+00
   0    15    0.100000D+01    0.838716D+00    0.138792D-05    0.290999D+00
   0    16    0.100000D+01    0.857498D+00    0.323292D-05    0.274702D+00
   0    17    0.100000D+01    0.876303D+00   -0.236470D-04    0.255230D+00
   0    18    0.999998D+00    0.895076D+00    0.398599D-03    0.231874D+00
   0    19    0.999987D+00    0.913809D+00    0.736024D-02    0.203779D+00
   0    20    0.999903D+00    0.932547D+00    0.342209D-01    0.169981D+00
   0    21    0.999273D+00    0.951395D+00   -0.227127D+00    0.129571D+00
   0    22    0.994924D+00    0.970628D+00    0.329506D+01    0.818430D-01
   0    23    0.965718D+00    0.990340D+00   -0.711032D+01    0.276490D-01
   0    24    0.795299D+00    0.100968D+01    0.591987D+02   -0.255813D-01
   0    25    0.255508D+00    0.101895D+01   -0.719046D+02   -0.542578D-01
   0    26    0.610314D-01    0.102129D+01   -0.207836D+02   -0.584313D-01
   0    27    0.197339D-01    0.101732D+01   -0.560624D+01   -0.493211D-01
   0    28    0.107414D-01    0.101327D+01   -0.296203D+01   -0.373081D-01
   0    29    0.862353D-02    0.101144D+01    0.264118D+01   -0.326690D-01
   0    30    0.810346D-02    0.101078D+01    0.384384D+01   -0.309559D-01
   0    31    0.777600D-02    0.101070D+01   -0.119488D+01   -0.307220D-01
   0    32    0.774089D-02    0.100868D+01   -0.305768D+00   -0.246713D-01
   0    33    0.827769D-02    0.100751D+01   -0.909276D-01   -0.213964D-01
   0    34    0.919851D-02    0.100611D+01    0.173691D+01   -0.178268D-01
   0    35    0.105981D-01    0.100254D+01   -0.670077D-01   -0.717988D-02
   0    36    0.112394D-01    0.999670D+00    0.945887D+00    0.895945D-03
   0    37    0.122816D-01    0.996509D+00    0.671037D+01    0.996565D-02
   0    38    0.131685D-01    0.991589D+00    0.211231D+01    0.235641D-01
   0    39    0.151236D-01    0.984505D+00    0.453930D+01    0.440074D-01
   0    40    0.184039D-01    0.973902D+00    0.526021D+01    0.727963D-01
   0    41    0.217358D-01    0.960488D+00    0.996617D+01    0.107773D+00
   0    42    0.250026D-01    0.939618D+00   -0.538459D+01    0.155930D+00
   0    43    0.274913D-01    0.908283D+00    0.115801D+02    0.213234D+00
   0    44    0.251857D-01    0.857963D+00    0.516954D+01    0.274593D+00
   0    45    0.178427D-01    0.785722D+00   -0.364883D+01    0.325230D+00
   0    46    0.102566D-01    0.691217D+00    0.730627D+01    0.360435D+00
   0    47    0.504184D-02    0.584768D+00    0.452475D+01    0.382390D+00
   0    48    0.223334D-02    0.477110D+00    0.794883D+00    0.395920D+00
   0    49    0.832954D-03    0.377142D+00    0.457025D+00    0.404430D+00
   0    50    0.303985D-03    0.290077D+00    0.242710D+00    0.409933D+00
   0    51    0.105150D-03    0.217910D+00    0.109138D+00    0.413583D+00
   0    52    0.359252D-04    0.160353D+00    0.377165D-01    0.416051D+00
   0    53    0.117511D-04    0.115866D+00    0.337342D-02    0.417742D+00
   0    54    0.374664D-05    0.823842D-01    0.336780D-02    0.418908D+00
   0    55    0.117570D-05    0.577544D-01    0.319188D-03    0.419713D+00
   0    56    0.352518D-06    0.399882D-01    0.315975D-03    0.420268D+00
   0    57    0.107208D-06    0.273882D-01    0.536950D-04    0.420650D+00
   0    58    0.315510D-07    0.185816D-01    0.325463D-04    0.420911D+00
   0    59    0.930551D-08    0.125034D-01    0.119650D-04    0.421089D+00
   0    60    0.266824D-08    0.835347D-02    0.227087D-05    0.421209D+00
   0    61    0.750290D-09    0.554633D-02    0.194481D-06    0.421289D+00
   0    62    0.223592D-09    0.366261D-02    0.265861D-07    0.421343D+00
   0    63    0.711734D-10    0.240722D-02    0.734935D-07    0.421379D+00
   0    64    0.213635D-10    0.157551D-02    0.111335D-07    0.421402D+00
   0    65    0.647937D-11    0.102733D-02    0.291206D-08    0.421418D+00
   0    66    0.199640D-11    0.667638D-03    0.230575D-08    0.421428D+00
   0    67    0.597906D-12    0.432553D-03    0.740720D-09    0.421435D+00
   0    68    0.171137D-12    0.279447D-03    0.698369D-10    0.421439D+00
   0    69    0.505799D-13    0.180050D-03    0.643959D-10    0.421442D+00
   0    70    0.144553D-13    0.115708D-03    0.178071D-10    0.421444D+00
   0    71    0.408408D-14    0.741722D-04    0.482105D-11    0.421445D+00
   0    72    0.111320D-14    0.474281D-04    0.659706D-12    0.421446D+00
   0    73    0.320707D-15    0.302514D-04    0.229331D-12    0.421446D+00
   0    74    0.871323D-16    0.192468D-04    0.108246D-12    0.421446D+00
   0    75    0.233916D-16    0.122138D-04    0.169322D-13    0.421447D+00
   0    76    0.642208D-17    0.773037D-05    0.660513D-14    0.421447D+00
   0    77    0.175355D-17    0.487944D-05    0.132403D-14    0.421447D+00
   0    78    0.468524D-18    0.307131D-05    0.383335D-15    0.421447D+00
   0    79    0.123401D-18    0.192764D-05    0.147913D-15    0.421447D+00
   0    80    0.324981D-19    0.120624D-05    0.124625D-16    0.421447D+00
   0    81    0.852627D-20    0.752503D-06    0.372605D-17    0.421447D+00
   0    82    0.221163D-20    0.467962D-06    0.304886D-17    0.421447D+00
   0    83    0.568813D-21    0.290069D-06    0.595949D-18    0.421447D+00
   0    84    0.144779D-21    0.179202D-06    0.101276D-18    0.421447D+00
   0    85    0.372107D-22    0.110331D-06    0.163977D-19    0.421447D+00
   0    86    0.958412D-23    0.676914D-07    0.516019D-20    0.421447D+00
   0    87    0.241462D-23    0.413823D-07    0.334512D-20    0.421447D+00
   0    88    0.610235D-24    0.252064D-07    0.434369D-21    0.421447D+00
   0    89    0.152475D-24    0.152965D-07    0.431067D-22    0.421447D+00
   0    90    0.378610D-25    0.924768D-08    0.461285D-22    0.421447D+00
   0    91    0.980160D-26    0.556937D-08    0.627289D-23    0.421447D+00
   0    92    0.245137D-26    0.334110D-08    0.274390D-23    0.421447D+00
   0    93    0.609334D-27    0.199645D-08    0.188186D-24    0.421447D+00
   0    94    0.148370D-27    0.118822D-08    0.186469D-24    0.421447D+00
   0    95    0.376808D-28    0.704344D-09    0.495194D-25    0.421447D+00
   0    96    0.952513D-29    0.415818D-09    0.944097D-26    0.421447D+00
   0    97    0.235232D-29    0.244478D-09    0.217841D-26    0.421447D+00
   0    98    0.567478D-30    0.143146D-09    0.384841D-27    0.421447D+00
   0    99    0.138504D-30    0.834653D-10    0.156102D-27    0.421447D+00
   0   100    0.336584D-31    0.484632D-10    0.402525D-28    0.421447D+00
   0   101    0.822958D-32    0.280211D-10    0.625849D-29    0.421447D+00
   0   102    0.203335D-32    0.161331D-10    0.181404D-29    0.421447D+00
   0   103    0.488813D-33    0.924906D-11    0.310041D-30    0.421447D+00
   0   104    0.119040D-33    0.527983D-11    0.530168D-31    0.421447D+00
   0   105    0.291379D-34    0.300108D-11    0.389882D-31    0.421447D+00
   0   106    0.714348D-35    0.169850D-11    0.448224D-32    0.421447D+00
   0   107    0.169497D-35    0.957139D-12    0.159260D-32    0.421447D+00
   0   108    0.410493D-36    0.537037D-12    0.286849D-33    0.421447D+00
   0   109    0.950455D-37    0.300019D-12    0.375542D-34    0.421447D+00
   0   110    0.227056D-37    0.166880D-12    0.249552D-34    0.421447D+00
   0   111    0.551436D-38    0.924205D-13    0.205282D-35    0.421447D+00
   0   112    0.135539D-38    0.509610D-13    0.653001D-36    0.421447D+00
   0   113    0.318558D-39    0.279776D-13    0.193520D-36    0.421447D+00
   0   114    0.746349D-40    0.152928D-13    0.688390D-37    0.421447D+00
   0   115    0.178241D-40    0.832265D-14    0.207994D-37    0.421447D+00
   0   116    0.405558D-41    0.450959D-14    0.346517D-38    0.421447D+00
   0   117    0.933755D-42    0.243282D-14    0.585579D-39    0.421447D+00
   0   118    0.223019D-42    0.130672D-14    0.266766D-39    0.421447D+00
   0   119    0.536639D-43    0.698801D-15    0.154225D-40    0.421447D+00
   0   120    0.128494D-43    0.372068D-15    0.118442D-40    0.421447D+00
   0   121    0.302300D-44    0.197238D-15    0.195692D-41    0.421447D+00
   0   122    0.679954D-45    0.104102D-15    0.283715D-42    0.421447D+00
   0   123    0.155703D-45    0.547047D-16    0.571012D-43    0.421447D+00
   0   124    0.353831D-46    0.286215D-16    0.521158D-43    0.421447D+00
   0   125    0.799035D-47    0.149095D-16    0.385697D-44    0.421447D+00
   0   126    0.183516D-47    0.773279D-17    0.212361D-44    0.421447D+00
   0   127    0.414198D-48    0.399314D-17    0.644286D-45    0.421447D+00
   0   128    0.958956D-49    0.205305D-17    0.435944D-46    0.421447D+00
   0   129    0.215347D-49    0.105097D-17    0.189863D-46    0.421447D+00
   0   130    0.480986D-50    0.535667D-18    0.774583D-47    0.421447D+00
   0   131    0.109792D-50    0.271837D-18    0.158278D-47    0.421447D+00
   0   132    0.239385D-51    0.137353D-18    0.313656D-48    0.421447D+00
   0   133    0.542901D-52    0.691004D-19    0.330841D-49    0.421447D+00
   0   134    0.119055D-52    0.346133D-19    0.182239D-49    0.421447D+00
   0   135    0.271103D-53    0.172634D-19    0.144499D-50    0.421447D+00
   0   136    0.590003D-54    0.857296D-20    0.853848D-51    0.421447D+00
   0   137    0.128656D-54    0.423898D-20    0.760981D-52    0.421447D+00
   0   138    0.277735D-55    0.208699D-20    0.332414D-52    0.421447D+00
   0   139    0.587507D-56    0.102308D-20    0.710019D-53    0.421447D+00
   0   140    0.128228D-56    0.499379D-21    0.111947D-53    0.421447D+00
   0   141    0.273762D-57    0.242710D-21    0.391223D-54    0.421447D+00
   0   142    0.589053D-58    0.117458D-21    0.871704D-55    0.421447D+00
   0   143    0.125734D-58    0.566007D-22    0.102418D-55    0.421447D+00
   0   144    0.262469D-59    0.271584D-22    0.186101D-56    0.421447D+00
   0   145    0.545136D-60    0.129758D-22    0.500260D-57    0.421447D+00
   0   146    0.114003D-60    0.617322D-23    0.152210D-57    0.421447D+00
   0   147    0.238011D-61    0.292445D-23    0.157071D-58    0.421447D+00
   0   148    0.496109D-62    0.137954D-23    0.345480D-59    0.421447D+00
   0   149    0.103040D-62    0.648010D-24    0.155141D-59    0.421447D+00
   0   150    0.214505D-63    0.303105D-24    0.364727D-60    0.421447D+00
   0   151    0.438396D-64    0.141179D-24    0.474091D-61    0.421447D+00
   0   152    0.917381D-65    0.654810D-25    0.133928D-61    0.421447D+00
   0   153    0.185432D-65    0.302436D-25    0.298358D-62    0.421447D+00
   0   154    0.372758D-66    0.139100D-25    0.662335D-63    0.421447D+00
   0   155    0.755694D-67    0.637087D-26    0.756286D-64    0.421447D+00
   0   156    0.151349D-67    0.290571D-26    0.203358D-64    0.421447D+00
   0   157    0.302446D-68    0.131975D-26    0.221612D-65    0.421447D+00
   0   158    0.589273D-69    0.596927D-27    0.640082D-66    0.421447D+00
   0   159    0.119187D-69    0.268870D-27    0.162618D-66    0.421447D+00
   0   160    0.231397D-70    0.120603D-27    0.261609D-67    0.421447D+00
   0   161    0.452889D-71    0.538734D-28    0.306088D-68    0.421447D+00
   0   162    0.861214D-72    0.239658D-28    0.166381D-68    0.421447D+00
   0   163    0.165727D-72    0.106174D-28    0.146014D-69    0.421447D+00
   0   164    0.318306D-73    0.468436D-29    0.566104D-70    0.421447D+00
   0   165    0.615136D-74    0.205825D-29    0.567423D-71    0.421447D+00
   0   166    0.119618D-74    0.900659D-30    0.144423D-71    0.421447D+00
   0   167    0.228619D-75    0.392504D-30    0.413404D-72    0.421447D+00
   0   168    0.428394D-76    0.170354D-30    0.374486D-73    0.421447D+00
   0   169    0.792377D-77    0.736353D-31    0.151589D-73    0.421447D+00
   0   170    0.144384D-77    0.316994D-31    0.285450D-74    0.421447D+00
   0   171    0.276649D-78    0.135910D-31    0.395538D-75    0.421447D+00
   0   172    0.510372D-79    0.580349D-32    0.577199D-76    0.421447D+00
   0   173    0.940073D-80    0.246813D-32    0.137062D-76    0.421447D+00
   0   174    0.172224D-80    0.104543D-32    0.276320D-77    0.421447D+00
   0   175    0.317428D-81    0.441030D-33    0.268951D-78    0.421447D+00
   0   176    0.558484D-82    0.185308D-33    0.934974D-79    0.421447D+00
   0   177    0.100671D-82    0.775491D-34    0.202065D-79    0.421447D+00
   0   178    0.187823D-83    0.323236D-34    0.308828D-80    0.421447D+00
   0   179    0.338797D-84    0.134192D-34    0.305453D-81    0.421447D+00
   0   180    0.606481D-85    0.554880D-35    0.933845D-82    0.421447D+00
   0   181    0.106635D-85    0.228530D-35    0.110473D-82    0.421447D+00
   0   182    0.186171D-86    0.937481D-36    0.288930D-83    0.421447D+00
   0   183    0.323192D-87    0.383054D-36    0.500701D-84    0.421447D+00
   0   184    0.549210D-88    0.155898D-36    0.749340D-85    0.421447D+00
   0   185    0.949308D-89    0.631981D-37    0.197208D-85    0.421447D+00
   0   186    0.165480D-89    0.255187D-37    0.208517D-86    0.421447D+00
   0   187    0.279107D-90    0.102637D-37    0.635475D-87    0.421447D+00
   0   188    0.479187D-91    0.411197D-38    0.702627D-88    0.421447D+00
   0   189    0.820282D-92    0.164095D-38    0.165188D-88    0.421447D+00
   0   190    0.138590D-92    0.652295D-39    0.208639D-89    0.421447D+00
   0   191    0.229465D-93    0.258286D-39    0.402781D-90    0.421447D+00
   0   192    0.383923D-94    0.101875D-39    0.662148D-91    0.421447D+00
   0   193    0.646885D-95    0.400271D-40    0.130157D-91    0.421447D+00
   0   194    0.105645D-95    0.156660D-40    0.206393D-92    0.421447D+00
   0   195    0.177594D-96    0.610777D-41    0.199992D-93    0.421447D+00
   0   196    0.285736D-97    0.237211D-41    0.475625D-94    0.421447D+00
   0   197    0.457924D-98    0.917736D-42    0.853883D-95    0.421447D+00
   0   198    0.751416D-99    0.353699D-42    0.110814D-95    0.421447D+00
   0   199    0.122793D-99    0.135796D-42    0.238624D-96    0.421447D+00
   0   200    0.198207-100    0.519379D-43    0.258587D-97    0.421447D+00
   0   201    0.318278-101    0.197890D-43    0.434619D-98    0.421447D+00
   0   202    0.496591-102    0.751128D-44    0.119472D-98    0.421447D+00
   0   203    0.785105-103    0.284025D-44    0.190031D-99    0.421447D+00
   0   204    0.125698-103    0.106993D-44    0.167314-100    0.421447D+00
   0   205    0.199033-104    0.401525D-45    0.391446-101    0.421447D+00
   0   206    0.307064-105    0.150119D-45    0.643071-102    0.421447D+00
   0   207    0.474682-106    0.559144D-46    0.636851-103    0.421447D+00
   0   208    0.732677-107    0.207484D-46    0.158257-103    0.421447D+00
   0   209    0.113387-107    0.767041D-47    0.161793-104    0.421447D+00
   0   210    0.178205-108    0.282509D-47    0.297544-105    0.421447D+00
   0   211    0.269322-109    0.103664D-47    0.567028-106    0.421447D+00
   0   212    0.417069-110    0.378973D-48    0.736037-107    0.421447D+00
   0   213    0.617666-111    0.138032D-48    0.130178-107    0.421447D+00
   0   214    0.915275-112    0.500890D-49    0.231191-108    0.421447D+00
   0   215    0.141803-112    0.181093D-49    0.289131-109    0.421447D+00
   0   216    0.210739-113    0.652325D-50    0.338631-110    0.421447D+00
   0   217    0.303796-114    0.234115D-50    0.697974-111    0.421447D+00
   0   218    0.445774-115    0.837147D-51    0.115981-111    0.421447D+00
   0   219    0.668051-116    0.298254D-51    0.165271-112    0.421447D+00
   0   220    0.978573-117    0.105873D-51    0.252144-113    0.421447D+00
   0   221    0.142885-117    0.374458D-52    0.225215-114    0.421447D+00
   0   222    0.210459-118    0.131960D-52    0.454069-115    0.421447D+00
   0   223    0.301038-119    0.463351D-53    0.773156-116    0.421447D+00
   0   224    0.431005-120    0.162109D-53    0.923329-117    0.421447D+00
   0   225    0.595482-121    0.565113D-54    0.119815-117    0.421447D+00
   0   226    0.842184-122    0.196292D-54    0.215587-118    0.421447D+00
   0   227    0.121163-122    0.679373D-55    0.285463-119    0.421447D+00
   0   228    0.168598-123    0.234293D-55    0.295236-120    0.421447D+00
   0   229    0.234051-124    0.805113D-56    0.557233-121    0.421447D+00
   0   230    0.328257-125    0.275681D-56    0.884088-122    0.421447D+00
   0   231    0.456660-126    0.940612D-57    0.841230-123    0.421447D+00
   0   232    0.628798-127    0.319796D-57    0.131679-123    0.421447D+00
   0   233    0.877740-128    0.108342D-57    0.174036-124    0.421447D+00
   0   234    0.119858-128    0.365753D-58    0.314959-125    0.421447D+00
   0   235    0.164482-129    0.123040D-58    0.459411-126    0.421447D+00
   0   236    0.225816-130    0.412457D-59    0.457621-127    0.421447D+00
   0   237    0.309556-131    0.137780D-59    0.656065-128    0.421447D+00
   0   238    0.413484-132    0.458643D-60    0.970520-129    0.421447D+00
   0   239    0.556469-133    0.152141D-60    0.112237-129    0.421447D+00
   0   240    0.746147-134    0.502924D-61    0.191440-130    0.421447D+00
   0   241    0.100785-134    0.165672D-61    0.245552-131    0.421447D+00
   0   242    0.134071-135    0.543866D-62    0.300635-132    0.421447D+00
   0   243    0.172966-136    0.177922D-62    0.412488-133    0.421447D+00
   0   244    0.228304-137    0.580056D-63    0.520766-134    0.421447D+00
   0   245    0.301056-138    0.188458D-63    0.662778-135    0.421447D+00
   0   246    0.398327-139    0.610190D-64    0.112404-135    0.421447D+00
   0   247    0.512355-140    0.196892D-64    0.135100-136    0.421447D+00
   0   248    0.657765-141    0.633147D-65    0.144548-137    0.421447D+00
   0   249    0.858104-142    0.202908D-65    0.161691-138    0.421447D+00
   0   250    0.111309-142    0.648061D-66    0.300752-139    0.421447D+00
   0   251    0.145458-143    0.206280D-66    0.437436-140    0.421447D+00
   0   252    0.181042-144    0.654375D-67    0.458878-141    0.421447D+00
   0   253    0.232054-145    0.206885D-67    0.489094-142    0.421447D+00
   0   254    0.293238-146    0.651876D-68    0.621297-143    0.421447D+00
   0   255    0.361387-147    0.204710D-68    0.952825-144    0.421447D+00
   0   256    0.451172-148    0.640703D-69    0.135077-144    0.421447D+00
   0   257    0.567192-149    0.199857D-69    0.116395-145    0.421447D+00
   0   258    0.716204-150    0.621341D-70    0.167798-146    0.421447D+00
   0   259    0.896529-151    0.192528D-70    0.244969-147    0.421447D+00
   0   260    0.110682-151    0.594581D-71    0.234596-148    0.421447D+00
   0   261    0.138634-152    0.183016D-71    0.371786-149    0.421447D+00
   0   262    0.166080-153    0.561471D-72    0.403609-150    0.421447D+00
   0   263    0.200247-154    0.171685D-72    0.441959-151    0.421447D+00
   0   264    0.242703-155    0.523244D-73    0.645975-152    0.421447D+00
   0   265    0.288406-156    0.158946D-73    0.686954-153    0.421447D+00
   0   266    0.351968-157    0.481249D-74    0.830706-154    0.421447D+00
   0   267    0.422403-158    0.145234D-74    0.112161-154    0.421447D+00
   0   268    0.497292-159    0.436867D-75    0.157564-155    0.421447D+00
   0   269    0.599131-160    0.130983D-75    0.186448-156    0.421447D+00
   0   270    0.722544-161    0.391444D-76    0.160345-157    0.421447D+00
   0   271    0.846287-162    0.116605D-76    0.282163-158    0.421447D+00
   0   272    0.976669-163    0.346224D-77    0.281317-159    0.421447D+00
   0   273    0.114491-163    0.102470D-77    0.366669-160    0.421447D+00
   0   274    0.133290-164    0.302298D-78    0.381541-161    0.421447D+00
   0   275    0.155875-165    0.888957D-79    0.478402-162    0.421447D+00
   0   276    0.182515-166    0.260575D-79    0.566118-163    0.421447D+00
   0   277    0.210560-167    0.761372D-80    0.586165-164    0.421447D+00
   0   278    0.242522-168    0.221756D-80    0.698921-165    0.421447D+00
   0   279    0.273827-169    0.643827D-81    0.930564-166    0.421447D+00
   0   280    0.313524-170    0.186331D-81    0.930528-167    0.421447D+00
   0   281    0.358210-171    0.537556D-82    0.999511-168    0.421447D+00
   0   282    0.406526-172    0.154593D-82    0.135804-168    0.421447D+00
   0   283    0.460317-173    0.443186D-83    0.124385-169    0.421447D+00
   0   284    0.529130-174    0.126653D-83    0.163602-170    0.421447D+00
   0   285    0.600070-175    0.360811D-84    0.207246-171    0.421447D+00
   0   286    0.662384-176    0.102467D-84    0.247580-172    0.421447D+00
   0   287    0.744458-177    0.290089D-85    0.261816-173    0.421447D+00
   0   288    0.822430-178    0.818696D-86    0.265889-174    0.421447D+00
   0   289    0.924810-179    0.230337D-86    0.264932-175    0.421447D+00
   0   290    0.103146-179    0.646035D-87    0.304185-176    0.421447D+00
   0   291    0.111304-180    0.180635D-87    0.409753-177    0.421447D+00
   0   292    0.122468-181    0.503510D-88    0.316018-178    0.421447D+00
   0   293    0.132515-182    0.139918D-88    0.352255-179    0.421447D+00
   0   294    0.142922-183    0.387617D-89    0.532022-180    0.421447D+00
   0   295    0.150337-184    0.107053D-89    0.444096-181    0.421447D+00
   0   296    0.161180-185    0.294757D-90    0.513621-182    0.421447D+00
   0   297    0.172775-186    0.809103D-91    0.554107-183    0.421447D+00
   0   298    0.182359-187    0.221421D-91    0.606597-184    0.421447D+00
   0   299    0.197403-188    0.604104D-92    0.754132-185    0.421447D+00
   0   300    0.212742-189    0.164319D-92    0.787152-186    0.421447D+00
   0   301    0.227953-190    0.445602D-93    0.774201-187    0.421447D+00
   0   302    0.236888-191    0.120475D-93    0.872983-188    0.421447D+00
   0   303    0.250744-192    0.324739D-94    0.917511-189    0.421447D+00
   0   304    0.261241-193    0.872702D-95    0.996055-190    0.421447D+00
   0   305    0.271470-194    0.233827D-95    0.777407-191    0.421447D+00
   0   306    0.283389-195    0.624630D-96    0.865079-192    0.421447D+00
   0   307    0.296009-196    0.166362D-96    0.106324-192    0.421447D+00
   0   308    0.304713-197    0.441763D-97    0.885232-194    0.421447D+00
   0   309    0.311574-198    0.116959D-97    0.120025-194    0.421447D+00
   0   310    0.317242-199    0.308736D-98    0.972603-196    0.421447D+00
   0   311    0.329248-200    0.812562D-99    0.115806-196    0.421447D+00
   0   312    0.338491-201    0.213227D-99    0.105231-197    0.421447D+00
   0   313    0.339748-202    0.557888-100    0.132933-198    0.421447D+00
   0   314    0.350891-203    0.145537-100    0.109897-199    0.421447D+00
   0   315    0.351270-204    0.378554-101    0.134905-200    0.421447D+00
   0   316    0.354765-205    0.981767-102    0.111470-201    0.421447D+00
   0   317    0.359464-206    0.253875-102    0.125772-202    0.421447D+00
   0   318    0.361161-207    0.654585-103    0.112487-203    0.421447D+00
   0   319    0.359552-208    0.168286-103    0.150484-204    0.421447D+00
   0   320    0.364309-209    0.431389-104    0.117612-205    0.421447D+00
   0   321    0.363985-210    0.110264-104    0.132620-206    0.421447D+00
   0   322    0.358708-211    0.281022-105    0.139410-207    0.421447D+00
   0   323    0.356586-212    0.714161-106    0.134241-208    0.421447D+00
   0   324    0.348362-213    0.180968-106    0.125250-209    0.421447D+00
   0   325    0.336062-214    0.457258-107    0.109371-210    0.421447D+00
   0   326    0.327850-215    0.115206-107    0.110033-211    0.421447D+00
   0   327    0.318150-216    0.289434-108    0.103445-212    0.421447D+00
   0   328    0.311321-217    0.725077-109    0.123219-213    0.421447D+00
   0   329    0.292438-218    0.181127-109    0.131317-214    0.421447D+00
   0   330    0.285392-219    0.451177-110    0.942267-216    0.421447D+00
   0   331    0.269879-220    0.112068-110    0.965533-217    0.421447D+00
   0   332    0.258255-221    0.277580-111    0.105837-217    0.421447D+00
   0   333    0.247776-222    0.685596-112    0.964106-219    0.421447D+00
   0   334    0.236685-223    0.168860-112    0.907747-220    0.421447D+00
   0   335    0.226694-224    0.414729-113    0.733390-221    0.421447D+00
   0   336    0.210271-225    0.101575-113    0.898267-222    0.421447D+00
   0   337    0.199777-226    0.248079-114    0.648959-223    0.421447D+00
   0   338    0.188562-227    0.604204-115    0.728377-224    0.421447D+00
   0   339    0.175523-228    0.146746-115    0.640782-225    0.421447D+00
   0   340    0.162604-229    0.355422-116    0.624881-226    0.421447D+00
   0   341    0.149530-230    0.858452-117    0.559538-227    0.421447D+00
   0   342    0.136671-231    0.206769-117    0.471868-228    0.421447D+00
   0   343    0.128542-232    0.496658-118    0.463454-229    0.421447D+00
   0   344    0.118421-233    0.118968-118    0.467991-230    0.421447D+00
   0   345    0.109053-234    0.284192-119    0.477143-231    0.421447D+00
   0   346    0.994397-236    0.677017-120    0.348175-232    0.421447D+00
   0   347    0.899213-237    0.160842-120    0.364701-233    0.421447D+00
   0   348    0.838560-238    0.381076-121    0.344216-234    0.421447D+00
   0   349    0.778519-239    0.900409-122    0.264887-235    0.421447D+00
   0   350    0.694945-240    0.212171-122    0.252650-236    0.421447D+00
   0   351    0.627644-241    0.498603-123    0.242458-237    0.421447D+00
   0   352    0.563255-242    0.116855-123    0.221076-238    0.421447D+00
   0   353    0.506851-243    0.273126-124    0.181661-239    0.421447D+00
   0   354    0.447572-244    0.636661-125    0.166855-240    0.421447D+00
   0   355    0.396344-245    0.148008-125    0.145333-241    0.421447D+00
   0   356    0.345066-246    0.343158-126    0.140173-242    0.421447D+00
   0   357    0.303223-247    0.793487-127    0.140488-243    0.421447D+00
   0   358    0.267305-248    0.182988-127    0.112769-244    0.421447D+00
   0   359    0.232498-249    0.420869-128    0.956757-246    0.421447D+00
   0   360    0.203511-250    0.965415-129    0.934118-247    0.421447D+00
   0   361    0.179857-251    0.220865-129    0.730767-248    0.421447D+00
   0   362    0.158769-252    0.503949-130    0.754511-249    0.421447D+00
   0   363    0.138303-253    0.114682-130    0.664550-250    0.421447D+00
   0   364    0.120922-254    0.260291-131    0.562137-251    0.421447D+00
   0   365    0.101709-255    0.589220-132    0.439556-252    0.421447D+00
   0   366    0.890312-257    0.133031-132    0.389689-253    0.421447D+00
   0   367    0.768380-258    0.299563-133    0.376445-254    0.421447D+00
   0   368    0.651258-259    0.672798-134    0.318655-255    0.421447D+00
   0   369    0.566116-260    0.150711-134    0.248363-256    0.421447D+00
   0   370    0.480723-261    0.336724-135    0.231829-257    0.421447D+00
   0   371    0.412879-262    0.750363-136    0.193834-258    0.421447D+00
   0   372    0.346184-263    0.166778-136    0.168530-259    0.421447D+00
   0   373    0.294478-264    0.369727-137    0.132378-260    0.421447D+00
   0   374    0.251954-265    0.817523-138    0.111351-261    0.421447D+00
   0   375    0.207095-266    0.180300-138    0.105543-262    0.421447D+00
   0   376    0.172165-267    0.396618-139    0.718057-264    0.421447D+00
   0   377    0.145390-268    0.870227-140    0.643822-265    0.421447D+00
   0   378    0.119241-269    0.190448-140    0.577158-266    0.421447D+00
   0   379    0.101620-270    0.415728-141    0.401450-267    0.421447D+00
   0   380    0.838433-272    0.905171-142    0.386874-268    0.421447D+00
   0   381    0.702077-273    0.196582-142    0.303480-269    0.421447D+00
   0   382    0.579530-274    0.425845-143    0.243460-270    0.421447D+00
   0   383    0.465644-275    0.920144-144    0.232585-271    0.421447D+00
   0   384    0.379160-276    0.198316-144    0.195931-272    0.421447D+00
   0   385    0.307954-277    0.426345-145    0.136680-273    0.421447D+00
   0   386    0.252228-278    0.914254-146    0.110394-274    0.421447D+00
   0   387    0.203874-279    0.195559-146    0.101573-275    0.421447D+00
   0   388    0.167219-280    0.417250-147    0.781120-277    0.421447D+00
   0   389    0.133598-281    0.888023-148    0.568321-278    0.421447D+00
   0   390    0.109204-282    0.188523-148    0.524519-279    0.421447D+00
   0   391    0.880352-284    0.399225-149    0.416616-280    0.421447D+00
   0   392    0.713434-285    0.843309-150    0.339334-281    0.421447D+00
   0   393    0.581317-286    0.177695-150    0.241386-282    0.421447D+00
   0   394    0.465870-287    0.373493-151    0.221842-283    0.421447D+00
   0   395    0.377658-288    0.783091-152    0.168848-284    0.421447D+00
   0   396    0.293943-289    0.163782-152    0.148850-285    0.421447D+00
   0   397    0.232027-290    0.341676-153    0.105752-286    0.421447D+00