variables =  "IG"  "JG"  "PHI"  "Temp."  "Latent_heat"  "mm"
ZONE  I=  401  J=  101
   0     0    0.100000D+01    0.942310D+00    0.000000D+00    0.149906D+00
   0     1    0.100000D+01    0.942310D+00    0.000000D+00    0.149906D+00
   0     2    0.100000D+01    0.942409D+00    0.000000D+00    0.149692D+00
   0     3    0.100000D+01    0.942608D+00    0.000000D+00    0.149265D+00
   0     4    0.100000D+01    0.942905D+00    0.000000D+00    0.148624D+00
   0     5    0.100000D+01    0.943300D+00    0.000000D+00    0.147768D+00
   0     6    0.100000D+01    0.943793D+00    0.000000D+00    0.146698D+00
   0     7    0.100000D+01    0.944382D+00    0.000000D+00    0.145411D+00
   0     8    0.100000D+01    0.945068D+00    0.000000D+00    0.143907D+00
   0     9    0.100000D+01    0.945847D+00    0.000000D+00    0.142185D+00
   0    10    0.100000D+01    0.946720D+00    0.000000D+00    0.140245D+00
   0    11    0.100000D+01    0.947685D+00    0.000000D+00    0.138083D+00
   0    12    0.100000D+01    0.948740D+00    0.000000D+00    0.135700D+00
   0    13    0.100000D+01    0.949884D+00    0.000000D+00    0.133094D+00
   0    14    0.100000D+01    0.951114D+00    0.000000D+00    0.130263D+00
   0    15    0.100000D+01    0.952429D+00    0.000000D+00    0.127205D+00
   0    16    0.100000D+01    0.953828D+00    0.000000D+00    0.123921D+00
   0    17    0.100000D+01    0.955308D+00    0.000000D+00    0.120407D+00
   0    18    0.100000D+01    0.956867D+00    0.000000D+00    0.116663D+00
   0    19    0.100000D+01    0.958503D+00    0.000000D+00    0.112687D+00
   0    20    0.100000D+01    0.960215D+00    0.000000D+00    0.108477D+00
   0    21    0.100000D+01    0.962001D+00    0.000000D+00    0.104034D+00
   0    22    0.100000D+01    0.963858D+00    0.000000D+00    0.993548D-01
   0    23    0.100000D+01    0.965787D+00    0.000000D+00    0.944394D-01
   0    24    0.100000D+01    0.967784D+00    0.000000D+00    0.892867D-01
   0    25    0.100000D+01    0.969848D+00    0.000000D+00    0.838963D-01
   0    26    0.100000D+01    0.971979D+00    0.000000D+00    0.782675D-01
   0    27    0.100000D+01    0.974176D+00    0.399680D-10    0.724003D-01
   0    28    0.100000D+01    0.976437D+00    0.572875D-09    0.662945D-01
   0    29    0.100000D+01    0.978763D+00    0.218492D-08    0.599499D-01
   0    30    0.100000D+01    0.981153D+00   -0.159472D-07    0.533658D-01
   0    31    0.100000D+01    0.983610D+00   -0.137890D-06    0.465406D-01
   0    32    0.100000D+01    0.986134D+00   -0.633760D-06    0.394708D-01
   0    33    0.100000D+01    0.988730D+00    0.611295D-05    0.321492D-01
   0    34    0.100000D+01    0.991405D+00   -0.233852D-04    0.245620D-01
   0    35    0.999999D+00    0.994170D+00    0.207500D-03    0.166824D-01
   0    36    0.999996D+00    0.997046D+00   -0.138068D-03    0.845809D-02
   0    37    0.999979D+00    0.100008D+01    0.218913D-02   -0.217900D-03
   0    38    0.999867D+00    0.100334D+01   -0.909399D-03   -0.956344D-02
   0    39    0.999206D+00    0.100697D+01    0.132161D+00   -0.199357D-01
   0    40    0.995162D+00    0.101114D+01    0.634368D+00   -0.318469D-01
   0    41    0.970841D+00    0.101547D+01    0.803393D+01   -0.442763D-01
   0    42    0.836579D+00    0.102074D+01    0.653801D+01   -0.591941D-01
   0    43    0.340201D+00    0.102782D+01    0.122268D+03   -0.812053D-01
   0    44    0.795336D-01    0.102496D+01    0.129891D+02   -0.710033D-01
   0    45    0.227881D-01    0.102167D+01   -0.112643D+02   -0.620298D-01
   0    46    0.965854D-02    0.101852D+01    0.222340D+01   -0.529779D-01
   0    47    0.738388D-02    0.101521D+01   -0.221651D+00   -0.436668D-01
   0    48    0.776016D-02    0.101215D+01    0.552105D+00   -0.342019D-01
   0    49    0.889712D-02    0.101033D+01    0.390492D+01   -0.299659D-01
   0    50    0.951778D-02    0.100872D+01    0.573507D+01   -0.248005D-01
   0    51    0.100208D-01    0.100696D+01   -0.455856D+00   -0.203161D-01
   0    52    0.102804D-01    0.100635D+01    0.151469D+01   -0.177430D-01
   0    53    0.105049D-01    0.100573D+01    0.303600D+01   -0.159735D-01
   0    54    0.112127D-01    0.100559D+01    0.536549D+01   -0.154149D-01
   0    55    0.117316D-01    0.100456D+01    0.357393D+01   -0.125585D-01
   0    56    0.116650D-01    0.100471D+01    0.760052D+01   -0.132201D-01
   0    57    0.119868D-01    0.100341D+01    0.587830D+01   -0.943125D-02
   0    58    0.122397D-01    0.100198D+01    0.514111D+00   -0.552687D-02
   0    59    0.125288D-01    0.100182D+01    0.208023D+01   -0.584110D-02
   0    60    0.126425D-01    0.100212D+01    0.125434D+01   -0.565212D-02
   0    61    0.126751D-01    0.100123D+01   -0.617392D+01   -0.365676D-02
   0    62    0.131701D-01    0.100043D+01    0.230549D+00   -0.840814D-03
   0    63    0.131554D-01    0.100067D+01    0.224762D+01   -0.153128D-02
   0    64    0.132266D-01    0.100096D+01   -0.335392D+01   -0.232053D-02
   0    65    0.134518D-01    0.999643D+00    0.200404D+01    0.653909D-03
   0    66    0.134005D-01    0.999415D+00   -0.777866D+01    0.166600D-02
   0    67    0.133875D-01    0.999158D+00    0.114684D+01    0.278062D-02
   0    68    0.134082D-01    0.100025D+01    0.214905D+01   -0.180366D-03
   0    69    0.138628D-01    0.999846D+00    0.761023D+01    0.689142D-03
   0    70    0.140870D-01    0.999140D+00    0.529394D+01    0.224328D-02
   0    71    0.139718D-01    0.997143D+00   -0.743211D+01    0.778795D-02
   0    72    0.142381D-01    0.996570D+00    0.648595D+01    0.986650D-02
   0    73    0.143892D-01    0.997249D+00    0.469369D+00    0.860887D-02
   0    74    0.149564D-01    0.997565D+00   -0.313079D+00    0.754560D-02
   0    75    0.146851D-01    0.996886D+00    0.522842D+00    0.889095D-02
   0    76    0.149327D-01    0.997089D+00    0.641850D+01    0.870896D-02
   0    77    0.146654D-01    0.997420D+00    0.246248D+01    0.742483D-02
   0    78    0.146419D-01    0.997852D+00   -0.162651D+01    0.546618D-02
   0    79    0.149001D-01    0.996777D+00   -0.568193D+01    0.100340D-01
   0    80    0.154660D-01    0.995954D+00    0.952194D+00    0.122170D-01
   0    81    0.151814D-01    0.996506D+00    0.432731D+01    0.100075D-01
   0    82    0.149095D-01    0.995301D+00   -0.728228D+01    0.140235D-01
   0    83    0.151594D-01    0.996143D+00    0.625048D+01    0.109696D-01
   0    84    0.149068D-01    0.995684D+00   -0.771493D+01    0.124702D-01
   0    85    0.151751D-01    0.996204D+00   -0.573636D+01    0.106404D-01
   0    86    0.152019D-01    0.996568D+00    0.689947D+01    0.100508D-01
   0    87    0.151823D-01    0.996328D+00   -0.735313D+01    0.106978D-01
   0    88    0.151207D-01    0.996257D+00   -0.357687D+01    0.105357D-01
   0    89    0.157889D-01    0.996387D+00   -0.961785D+01    0.109970D-01
   0    90    0.154405D-01    0.997550D+00    0.495213D+01    0.733920D-02
   0    91    0.151372D-01    0.996518D+00    0.257306D+01    0.105535D-01
   0    92    0.149630D-01    0.996320D+00   -0.250607D+01    0.105959D-01
   0    93    0.151558D-01    0.995659D+00    0.867328D+01    0.119482D-01
   0    94    0.158224D-01    0.996327D+00    0.157914D+00    0.111715D-01
   0    95    0.153124D-01    0.996504D+00   -0.378507D+01    0.991172D-02
   0    96    0.154391D-01    0.996375D+00    0.343420D-01    0.110415D-01
   0    97    0.154188D-01    0.995497D+00    0.873112D+01    0.130472D-01
   0    98    0.152466D-01    0.995631D+00    0.292629D+01    0.118737D-01
   0    99    0.153969D-01    0.995638D+00   -0.797830D+01    0.130616D-01
   0   100    0.153665D-01    0.995015D+00    0.827324D+01    0.145145D-01
   0   101    0.151646D-01    0.994654D+00    0.608413D+01    0.146562D-01
   0   102    0.154509D-01    0.995814D+00    0.551201D+01    0.116962D-01
   0   103    0.155488D-01    0.996796D+00    0.230226D+01    0.886735D-02
   0   104    0.157679D-01    0.995878D+00   -0.157835D+01    0.120888D-01
   0   105    0.156431D-01    0.995639D+00    0.444504D+01    0.122616D-01
   0   106    0.156954D-01    0.997131D+00   -0.638737D+01    0.885026D-02
   0   107    0.157833D-01    0.996300D+00   -0.238968D+01    0.981466D-02
   0   108    0.156352D-01    0.994437D+00    0.938088D-01    0.155073D-01
   0   109    0.155466D-01    0.995225D+00   -0.842459D+01    0.134573D-01
   0   110    0.156766D-01    0.996253D+00    0.425017D+01    0.104854D-01
   0   111    0.154634D-01    0.995614D+00    0.760894D+00    0.127021D-01
   0   112    0.154303D-01    0.995919D+00   -0.859200D+01    0.114088D-01
   0   113    0.152239D-01    0.996829D+00    0.265390D+01    0.976426D-02
   0   114    0.158541D-01    0.995817D+00   -0.983334D+01    0.116119D-01
   0   115    0.154541D-01    0.995581D+00    0.221137D+01    0.120808D-01
   0   116    0.153797D-01    0.995230D+00   -0.557837D+01    0.135117D-01
   0   117    0.155781D-01    0.995555D+00   -0.336328D+01    0.125041D-01
   0   118    0.154980D-01    0.995898D+00   -0.587378D+01    0.118253D-01
   0   119    0.147982D-01    0.995474D+00   -0.144871D+01    0.129159D-01
   0   120    0.158282D-01    0.994484D+00    0.273763D+01    0.158074D-01
   0   121    0.160489D-01    0.995398D+00    0.811647D+01    0.126229D-01
   0   122    0.157124D-01    0.996341D+00    0.168657D+01    0.112112D-01
   0   123    0.154470D-01    0.997159D+00    0.357167D+01    0.870964D-02
   0   124    0.154916D-01    0.996494D+00    0.638321D+01    0.919927D-02
   0   125    0.154916D-01    0.996374D+00    0.138362D+01    0.110112D-01
   0   126    0.157126D-01    0.995851D+00   -0.509519D+01    0.120593D-01
   0   127    0.159254D-01    0.995839D+00   -0.639127D+00    0.121113D-01
   0   128    0.153408D-01    0.996830D+00    0.860715D+01    0.894305D-02
   0   129    0.155279D-01    0.996726D+00    0.179200D+01    0.971642D-02
   0   130    0.156549D-01    0.996510D+00    0.565306D+01    0.987501D-02
   0   131    0.160013D-01    0.995468D+00    0.735223D+01    0.122959D-01
   0   132    0.158271D-01    0.994912D+00   -0.661148D+01    0.142230D-01
   0   133    0.152667D-01    0.994817D+00   -0.189627D+01    0.146630D-01
   0   134    0.158066D-01    0.995995D+00   -0.533422D+01    0.116815D-01
   0   135    0.156449D-01    0.996867D+00   -0.405577D+00    0.846786D-02
   0   136    0.158367D-01    0.996305D+00   -0.231622D+01    0.105612D-01
   0   137    0.154602D-01    0.995949D+00   -0.795349D+01    0.113959D-01
   0   138    0.153440D-01    0.997128D+00   -0.542085D+01    0.874512D-02
   0   139    0.153158D-01    0.997051D+00    0.483667D+01    0.815635D-02
   0   140    0.152276D-01    0.997417D+00   -0.558490D+01    0.802887D-02
   0   141    0.154147D-01    0.997454D+00    0.162965D+01    0.660193D-02
   0   142    0.149647D-01    0.997222D+00    0.215609D+01    0.813269D-02
   0   143    0.154495D-01    0.997972D+00    0.376944D+01    0.618132D-02
   0   144    0.156467D-01    0.996531D+00   -0.786025D+00    0.924287D-02
   0   145    0.158952D-01    0.997682D+00    0.224066D+01    0.655961D-02
   0   146    0.159078D-01    0.997407D+00   -0.960045D+01    0.727164D-02
   0   147    0.157253D-01    0.997763D+00   -0.187396D+01    0.696993D-02
   0   148    0.152423D-01    0.995759D+00   -0.686339D+00    0.126672D-01
   0   149    0.155864D-01    0.995938D+00    0.406054D+01    0.116552D-01
   0   150    0.156197D-01    0.997081D+00   -0.268407D+01    0.917685D-02
   0   151    0.154605D-01    0.995834D+00   -0.835466D+01    0.117677D-01
   0   152    0.154710D-01    0.996196D+00    0.803323D+01    0.104566D-01
   0   153    0.156840D-01    0.996187D+00   -0.107688D+01    0.102087D-01
   0   154    0.156484D-01    0.996092D+00   -0.102684D+01    0.111761D-01
   0   155    0.154623D-01    0.996576D+00    0.135045D+01    0.103115D-01
   0   156    0.154492D-01    0.996417D+00   -0.366859D+01    0.107070D-01
   0   157    0.153994D-01    0.996110D+00    0.243378D+01    0.109667D-01
   0   158    0.156454D-01    0.995335D+00    0.555460D+01    0.138444D-01
   0   159    0.156742D-01    0.995909D+00   -0.979089D+01    0.112211D-01
   0   160    0.149911D-01    0.996724D+00    0.814622D+01    0.908467D-02
   0   161    0.153597D-01    0.996109D+00   -0.151110D+01    0.105652D-01
   0   162    0.156566D-01    0.994791D+00   -0.690746D+00    0.143513D-01
   0   163    0.156384D-01    0.995418D+00   -0.185977D+01    0.139223D-01
   0   164    0.154423D-01    0.994773D+00    0.333911D+01    0.144573D-01
   0   165    0.153201D-01    0.995600D+00   -0.857901D+01    0.118502D-01
   0   166    0.151573D-01    0.995697D+00    0.553785D+01    0.125428D-01
   0   167    0.150971D-01    0.995559D+00    0.931989D+00    0.122639D-01
   0   168    0.148255D-01    0.996381D+00   -0.462902D+01    0.962274D-02
   0   169    0.148199D-01    0.997606D+00   -0.745800D+01    0.755765D-02
   0   170    0.149166D-01    0.997108D+00    0.238957D+01    0.822839D-02
   0   171    0.151646D-01    0.998422D+00    0.219943D+00    0.513561D-02
   0   172    0.150692D-01    0.997317D+00   -0.105959D+01    0.715910D-02
   0   173    0.150706D-01    0.997449D+00   -0.308483D+01    0.684352D-02
   0   174    0.152129D-01    0.996539D+00    0.706562D+01    0.930637D-02
   0   175    0.148989D-01    0.997424D+00    0.223722D+01    0.691814D-02
   0   176    0.149791D-01    0.997447D+00    0.584690D+01    0.732972D-02
   0   177    0.147114D-01    0.996968D+00    0.865412D+01    0.814755D-02
   0   178    0.146651D-01    0.997312D+00    0.433374D+01    0.802602D-02
   0   179    0.147512D-01    0.998003D+00   -0.706094D+01    0.639561D-02
   0   180    0.146065D-01    0.996835D+00    0.363673D+01    0.929706D-02
   0   181    0.149161D-01    0.997635D+00   -0.607541D+01    0.731639D-02
   0   182    0.145989D-01    0.997164D+00    0.771241D+01    0.769634D-02
   0   183    0.150686D-01    0.997423D+00   -0.303480D+01    0.792249D-02
   0   184    0.147467D-01    0.997694D+00   -0.838863D+01    0.726126D-02
   0   185    0.145675D-01    0.996385D+00    0.175245D+01    0.971754D-02
   0   186    0.148449D-01    0.997195D+00   -0.399464D+01    0.807980D-02
   0   187    0.149673D-01    0.997270D+00    0.192519D+01    0.713821D-02
   0   188    0.149343D-01    0.995720D+00    0.405000D+01    0.128988D-01
   0   189    0.147933D-01    0.997252D+00    0.483325D+01    0.829147D-02
   0   190    0.148171D-01    0.997014D+00   -0.433695D+01    0.897845D-02
   0   191    0.150114D-01    0.996652D+00   -0.488961D+00    0.905336D-02
   0   192    0.148076D-01    0.996275D+00   -0.156150D+01    0.108457D-01
   0   193    0.148303D-01    0.995459D+00   -0.575133D+01    0.124769D-01
   0   194    0.151868D-01    0.997131D+00    0.602176D+01    0.848862D-02
   0   195    0.148869D-01    0.996422D+00    0.197230D+01    0.993170D-02
   0   196    0.144962D-01    0.996788D+00    0.377315D+01    0.992935D-02
   0   197    0.147196D-01    0.996250D+00   -0.529133D+01    0.105074D-01
   0   198    0.153610D-01    0.997346D+00    0.610831D+01    0.755003D-02
   0   199    0.150435D-01    0.997629D+00    0.452155D+01    0.613792D-02
   0   200    0.148963D-01    0.996859D+00   -0.644353D+01    0.894369D-02
   0   201    0.145239D-01    0.997413D+00    0.336069D+01    0.656145D-02
   0   202    0.143805D-01    0.998032D+00   -0.214817D+01    0.606081D-02
   0   203    0.145778D-01    0.998063D+00   -0.373478D+01    0.599160D-02
   0   204    0.146591D-01    0.998066D+00    0.471605D+01    0.494112D-02
   0   205    0.150886D-01    0.997150D+00   -0.337651D+01    0.812847D-02
   0   206    0.151281D-01    0.995987D+00   -0.553577D+01    0.122248D-01
   0   207    0.148560D-01    0.995552D+00   -0.548767D+01    0.127990D-01
   0   208    0.144892D-01    0.997574D+00    0.296707D+01    0.679944D-02
   0   209    0.143371D-01    0.997075D+00    0.611476D+01    0.837038D-02
   0   210    0.146388D-01    0.997440D+00   -0.867199D+01    0.732718D-02
   0   211    0.147389D-01    0.996203D+00   -0.472644D+01    0.114062D-01
   0   212    0.148213D-01    0.996652D+00    0.818599D+01    0.103117D-01
   0   213    0.147745D-01    0.995994D+00   -0.201992D+01    0.108746D-01
   0   214    0.152091D-01    0.997283D+00    0.111360D+01    0.841401D-02
   0   215    0.144762D-01    0.997452D+00   -0.439978D+01    0.714858D-02
   0   216    0.144380D-01    0.996745D+00    0.393924D+01    0.942000D-02
   0   217    0.146182D-01    0.996138D+00    0.328994D+01    0.107871D-01
   0   218    0.145662D-01    0.996583D+00    0.644672D+01    0.963105D-02
   0   219    0.142817D-01    0.996948D+00   -0.670205D+01    0.869839D-02
   0   220    0.141860D-01    0.997808D+00    0.323512D+01    0.585812D-02
   0   221    0.143156D-01    0.996841D+00    0.265984D+01    0.896923D-02
   0   222    0.141052D-01    0.995961D+00    0.299684D+01    0.111860D-01
   0   223    0.145984D-01    0.996570D+00    0.590103D+01    0.928686D-02
   0   224    0.140988D-01    0.997743D+00    0.756278D+01    0.662564D-02
   0   225    0.142151D-01    0.998776D+00   -0.315956D+01    0.398622D-02
   0   226    0.142423D-01    0.997415D+00   -0.601002D+01    0.675889D-02
   0   227    0.143524D-01    0.998687D+00   -0.137757D+01    0.408688D-02
   0   228    0.143173D-01    0.999127D+00   -0.443181D+01    0.188677D-02
   0   229    0.144070D-01    0.999510D+00    0.430716D+01    0.204365D-02
   0   230    0.143049D-01    0.999607D+00    0.146602D+00    0.173925D-02
   0   231    0.138179D-01    0.999806D+00    0.978034D+00    0.217734D-03
   0   232    0.140729D-01    0.100029D+01   -0.366082D+01   -0.326936D-03
   0   233    0.138889D-01    0.999226D+00    0.528114D+01    0.171365D-02
   0   234    0.139383D-01    0.998128D+00   -0.458501D+01    0.516316D-02
   0   235    0.139921D-01    0.997979D+00   -0.543820D+01    0.592604D-02
   0   236    0.139408D-01    0.997666D+00    0.255241D+01    0.688666D-02
   0   237    0.139205D-01    0.997790D+00   -0.594161D+01    0.675667D-02
   0   238    0.141124D-01    0.997866D+00    0.146040D+01    0.648948D-02
   0   239    0.142019D-01    0.997537D+00   -0.482760D+01    0.673844D-02
   0   240    0.143966D-01    0.997957D+00    0.147273D+01    0.537358D-02
   0   241    0.142779D-01    0.998325D+00    0.694016D+01    0.428575D-02
   0   242    0.141069D-01    0.998579D+00    0.367873D+01    0.375740D-02
   0   243    0.145906D-01    0.998364D+00   -0.964410D+01    0.445922D-02
   0   244    0.143033D-01    0.100011D+01    0.367147D+01   -0.306622D-03
   0   245    0.139040D-01    0.999542D+00    0.621516D+01    0.144155D-02
   0   246    0.139414D-01    0.999130D+00   -0.792167D+01    0.250362D-02
   0   247    0.141003D-01    0.999047D+00    0.722077D+01    0.262900D-02
   0   248    0.142767D-01    0.999022D+00    0.807819D+01    0.255831D-02
   0   249    0.139357D-01    0.999422D+00   -0.281324D+01    0.194889D-02
   0   250    0.134227D-01    0.100005D+01   -0.602508D+00    0.378437D-03
   0   251    0.141569D-01    0.999841D+00   -0.580010D+00    0.966516D-03
   0   252    0.140802D-01    0.999652D+00   -0.490784D+01    0.116582D-02
   0   253    0.141707D-01    0.999507D+00    0.721493D+01    0.803670D-03
   0   254    0.147337D-01    0.998571D+00    0.290000D+00    0.415127D-02
   0   255    0.140764D-01    0.999428D+00    0.849057D+01    0.199259D-02
   0   256    0.138515D-01    0.999371D+00   -0.167523D+01    0.144940D-02
   0   257    0.144158D-01    0.998866D+00   -0.902476D+01    0.348460D-02
   0   258    0.142819D-01    0.998121D+00    0.190466D+01    0.575421D-02
   0   259    0.139305D-01    0.999436D+00   -0.365693D+01    0.177787D-02
   0   260    0.139387D-01    0.998788D+00    0.604020D+01    0.299877D-02
   0   261    0.138263D-01    0.998452D+00   -0.701451D+01    0.441486D-02
   0   262    0.135509D-01    0.998571D+00    0.288183D+01    0.465571D-02
   0   263    0.135812D-01    0.999554D+00    0.769956D+00    0.141358D-02
   0   264    0.137805D-01    0.999715D+00    0.614120D+01    0.937425D-03
   0   265    0.138689D-01    0.999176D+00    0.739828D+01    0.246591D-02
   0   266    0.141747D-01    0.999749D+00    0.539376D+01   -0.571330D-04
   0   267    0.139363D-01    0.999849D+00   -0.536703D+00    0.458324D-03
   0   268    0.135264D-01    0.999088D+00    0.696514D+01    0.239355D-02
   0   269    0.137801D-01    0.998701D+00    0.705467D+01    0.413275D-02
   0   270    0.138473D-01    0.999102D+00   -0.570052D+01    0.312541D-02
   0   271    0.135561D-01    0.999300D+00    0.684196D+00    0.194090D-02
   0   272    0.136331D-01    0.999396D+00    0.112198D+01    0.233049D-02
   0   273    0.135979D-01    0.999019D+00    0.196916D+01    0.276448D-02
   0   274    0.138258D-01    0.999223D+00    0.344181D+01    0.266602D-02
   0   275    0.134117D-01    0.999876D+00    0.328191D+01    0.874056D-03
   0   276    0.133937D-01    0.999238D+00    0.233984D+01    0.209131D-02
   0   277    0.132719D-01    0.100058D+01    0.898655D+00   -0.225875D-02
   0   278    0.132908D-01    0.100016D+01   -0.667490D+01   -0.330634D-03
   0   279    0.132797D-01    0.999576D+00   -0.910976D+00    0.588077D-03
   0   280    0.133148D-01    0.100022D+01   -0.168806D+01   -0.218949D-03
   0   281    0.133814D-01    0.100070D+01   -0.497647D+01   -0.266527D-02
   0   282    0.131266D-01    0.100091D+01    0.985297D+00   -0.305729D-02
   0   283    0.131705D-01    0.100034D+01    0.297660D+01   -0.124179D-02
   0   284    0.128158D-01    0.100124D+01    0.648766D+01   -0.291085D-02
   0   285    0.134369D-01    0.100079D+01    0.213623D+01   -0.284612D-02
   0   286    0.132709D-01    0.100065D+01   -0.450069D+00   -0.199020D-02
   0   287    0.132599D-01    0.100005D+01    0.143435D+01   -0.202523D-03
   0   288    0.134002D-01    0.100022D+01    0.297263D+01   -0.960753D-03
   0   289    0.130992D-01    0.999843D+00   -0.648777D+01    0.763073D-03
   0   290    0.132801D-01    0.100024D+01    0.350413D+01   -0.213201D-03
   0   291    0.130064D-01    0.999443D+00   -0.338282D+01    0.134375D-02
   0   292    0.133302D-01    0.999800D+00    0.528756D+01    0.107958D-02
   0   293    0.136497D-01    0.999752D+00    0.154085D+01    0.100060D-02
   0   294    0.133524D-01    0.999506D+00    0.585592D+01    0.155159D-02
   0   295    0.134949D-01    0.100088D+01   -0.179347D+01   -0.224086D-02
   0   296    0.133788D-01    0.100013D+01   -0.366209D+01   -0.680068D-03
   0   297    0.134874D-01    0.100063D+01   -0.792838D+01   -0.163898D-02
   0   298    0.134189D-01    0.100098D+01    0.416925D+01   -0.337294D-02
   0   299    0.132270D-01    0.100095D+01    0.265016D+01   -0.281118D-02
   0   300    0.137125D-01    0.999290D+00    0.633672D+01    0.170990D-02
   0   301    0.136860D-01    0.999200D+00    0.656136D+01    0.271421D-02
   0   302    0.134590D-01    0.999641D+00   -0.414881D+01    0.137314D-02
   0   303    0.133215D-01    0.999653D+00   -0.371152D+01    0.778938D-03
   0   304    0.136467D-01    0.998850D+00    0.204611D+01    0.298782D-02
   0   305    0.136878D-01    0.999444D+00    0.739732D+01    0.115900D-02
   0   306    0.135512D-01    0.999499D+00    0.722549D+01    0.972468D-03
   0   307    0.134822D-01    0.999824D+00   -0.679418D+01    0.291678D-03
   0   308    0.136265D-01    0.999889D+00    0.226940D+01    0.120557D-03
   0   309    0.133648D-01    0.100019D+01    0.671216D+01   -0.665876D-03
   0   310    0.138330D-01    0.100067D+01   -0.803016D+01   -0.147597D-02
   0   311    0.135124D-01    0.100012D+01    0.320262D+01   -0.514221D-03
   0   312    0.132156D-01    0.999357D+00    0.545408D+01    0.159912D-02
   0   313    0.133605D-01    0.998060D+00   -0.523022D+01    0.520620D-02
   0   314    0.137883D-01    0.998218D+00   -0.794590D+01    0.575017D-02
   0   315    0.140927D-01    0.998766D+00   -0.234334D+01    0.412208D-02
   0   316    0.134658D-01    0.999401D+00   -0.614210D+01    0.184988D-02
   0   317    0.136835D-01    0.998933D+00    0.723628D+01    0.278800D-02
   0   318    0.139393D-01    0.998529D+00    0.534012D+01    0.462386D-02
   0   319    0.138789D-01    0.998066D+00   -0.817604D+01    0.514316D-02
   0   320    0.137765D-01    0.998733D+00   -0.645353D+00    0.339009D-02
   0   321    0.140580D-01    0.998511D+00    0.524597D+01    0.468608D-02
   0   322    0.141164D-01    0.998164D+00    0.646468D+01    0.567529D-02
   0   323    0.141234D-01    0.998625D+00   -0.222392D+01    0.362211D-02
   0   324    0.140685D-01    0.999848D+00   -0.378002D+01    0.988998D-03
   0   325    0.139726D-01    0.998307D+00    0.160334D+01    0.433913D-02
   0   326    0.139909D-01    0.997968D+00   -0.800547D+01    0.608872D-02
   0   327    0.139412D-01    0.997825D+00   -0.298793D+00    0.654994D-02
   0   328    0.138695D-01    0.997775D+00   -0.451759D+01    0.698997D-02
   0   329    0.139907D-01    0.998514D+00    0.783334D+01    0.444735D-02
   0   330    0.139042D-01    0.998185D+00   -0.649051D+01    0.537468D-02
   0   331    0.136617D-01    0.998022D+00   -0.729639D+01    0.599554D-02
   0   332    0.139683D-01    0.998215D+00    0.765259D+01    0.520738D-02
   0   333    0.138589D-01    0.998371D+00    0.782959D+01    0.424216D-02
   0   334    0.139553D-01    0.998123D+00    0.278817D+01    0.508229D-02
   0   335    0.141557D-01    0.998323D+00   -0.150499D+01    0.409953D-02
   0   336    0.141676D-01    0.999536D+00   -0.963867D+00    0.172900D-02
   0   337    0.138441D-01    0.998393D+00   -0.964367D+00    0.444374D-02
   0   338    0.144497D-01    0.998198D+00   -0.771673D+01    0.477419D-02
   0   339    0.144238D-01    0.999649D+00    0.257700D+01    0.109669D-02
   0   340    0.143188D-01    0.998386D+00    0.103977D+01    0.426806D-02
   0   341    0.146104D-01    0.997949D+00   -0.308832D+01    0.563445D-02
   0   342    0.145824D-01    0.998131D+00    0.172195D+01    0.540898D-02
   0   343    0.145918D-01    0.998813D+00    0.310810D+01    0.351003D-02
   0   344    0.151812D-01    0.997507D+00   -0.920046D+01    0.670692D-02
   0   345    0.153922D-01    0.996596D+00   -0.582305D+01    0.958763D-02
   0   346    0.150041D-01    0.996682D+00    0.382606D+01    0.101116D-01
   0   347    0.147338D-01    0.997430D+00   -0.353839D+01    0.735237D-02
   0   348    0.147872D-01    0.997434D+00   -0.317481D+01    0.761646D-02
   0   349    0.146004D-01    0.997229D+00    0.599082D+01    0.829053D-02
   0   350    0.148198D-01    0.997798D+00    0.835858D+00    0.663433D-02
   0   351    0.142652D-01    0.998909D+00    0.571503D+01    0.301618D-02
   0   352    0.141721D-01    0.998767D+00   -0.739094D+01    0.313656D-02
   0   353    0.141456D-01    0.999576D+00    0.111013D+00    0.174512D-02
   0   354    0.139428D-01    0.999086D+00   -0.535971D+01    0.275451D-02
   0   355    0.137180D-01    0.999786D+00   -0.607131D+01    0.404916D-03
   0   356    0.141233D-01    0.999630D+00    0.109901D+01    0.648516D-03
   0   357    0.142714D-01    0.998637D+00    0.464453D+01    0.355809D-02
   0   358    0.144446D-01    0.997982D+00   -0.335875D+01    0.537579D-02
   0   359    0.146303D-01    0.997163D+00   -0.702075D+01    0.877698D-02
   0   360    0.148910D-01    0.994329D+00   -0.577715D+01    0.166859D-01
   0   361    0.159899D-01    0.991672D+00    0.705171D+01    0.239532D-01
   0   362    0.172272D-01    0.987345D+00   -0.155558D+01    0.365808D-01
   0   363    0.191796D-01    0.980224D+00    0.485289D+01    0.567085D-01
   0   364    0.211208D-01    0.971255D+00   -0.105775D+02    0.803187D-01
   0   365    0.241828D-01    0.954634D+00   -0.546434D+01    0.122880D+00
   0   366    0.265443D-01    0.929225D+00   -0.508269D+01    0.177022D+00
   0   367    0.269668D-01    0.889342D+00    0.996816D+00    0.239745D+00
   0   368    0.226657D-01    0.828615D+00   -0.915751D+01    0.298826D+00
   0   369    0.141006D-01    0.744105D+00    0.993203D+01    0.343470D+00
   0   370    0.748141D-02    0.641309D+00    0.104806D+01    0.372212D+00
   0   371    0.337019D-02    0.531356D+00    0.454861D+00    0.389845D+00
   0   372    0.140818D-02    0.425426D+00    0.184331D+00    0.400679D+00
   0   373    0.527358D-03    0.330596D+00    0.533459D+00    0.407546D+00
   0   374    0.179962D-03    0.250430D+00    0.404920D-01    0.412024D+00
   0   375    0.615883D-04    0.185533D+00    0.281861D-01    0.415014D+00
   0   376    0.202677D-04    0.134814D+00    0.251793D-01    0.417043D+00
   0   377    0.665623D-05    0.963096D-01    0.259232D-02    0.418433D+00
   0   378    0.205734D-05    0.677850D-01    0.146488D-02    0.419390D+00
   0   379    0.640482D-06    0.470898D-01    0.423705D-03    0.420049D+00
   0   380    0.200352D-06    0.323411D-01    0.149049D-03    0.420501D+00
   0   381    0.589604D-07    0.219907D-01    0.633346D-04    0.420811D+00
   0   382    0.175200D-07    0.148228D-01    0.787931D-05    0.421021D+00
   0   383    0.508111D-08    0.991543D-02    0.305342D-05    0.421164D+00
   0   384    0.143507D-08    0.658886D-02    0.670795D-06    0.421259D+00
   0   385    0.410944D-09    0.435312D-02    0.148698D-06    0.421323D+00
   0   386    0.126016D-09    0.286159D-02    0.379495D-07    0.421366D+00
   0   387    0.389391D-10    0.187290D-02    0.292485D-07    0.421394D+00
   0   388    0.118773D-10    0.122115D-02    0.704934D-08    0.421412D+00
   0   389    0.360146D-11    0.793556D-03    0.245584D-08    0.421425D+00
   0   390    0.108922D-11    0.514178D-03    0.138309D-08    0.421432D+00
   0   391    0.320803D-12    0.332282D-03    0.726108D-10    0.421438D+00
   0   392    0.894321D-13    0.214203D-03    0.620226D-10    0.421441D+00
   0   393    0.257538D-13    0.137727D-03    0.145251D-10    0.421443D+00
   0   394    0.723135D-14    0.882627D-04    0.358129D-11    0.421445D+00
   0   395    0.203822D-14    0.562543D-04    0.228259D-11    0.421445D+00
   0   396    0.565397D-15    0.354529D-04    0.221739D-12    0.421446D+00
   0   397    0.156385D-15    0.217577D-04    0.109675D-12    0.421446D+00