variables =  "IG"  "JG"  "PHI"  "Temp."  "Latent_heat"  "mm"
ZONE  I=  401  J=  101
   0     0    0.100000D+01    0.891594D+00    0.000000D+00    0.236552D+00
   0     1    0.100000D+01    0.891594D+00    0.000000D+00    0.236552D+00
   0     2    0.100000D+01    0.891844D+00    0.000000D+00    0.236223D+00
   0     3    0.100000D+01    0.892342D+00    0.000000D+00    0.235564D+00
   0     4    0.100000D+01    0.893087D+00    0.000000D+00    0.234571D+00
   0     5    0.100000D+01    0.894076D+00    0.000000D+00    0.233242D+00
   0     6    0.100000D+01    0.895307D+00    0.000000D+00    0.231570D+00
   0     7    0.100000D+01    0.896775D+00    0.000000D+00    0.229549D+00
   0     8    0.100000D+01    0.898476D+00    0.000000D+00    0.227170D+00
   0     9    0.100000D+01    0.900404D+00    0.000000D+00    0.224424D+00
   0    10    0.100000D+01    0.902553D+00    0.000000D+00    0.221300D+00
   0    11    0.100000D+01    0.904917D+00    0.000000D+00    0.217785D+00
   0    12    0.100000D+01    0.907488D+00    0.000000D+00    0.213865D+00
   0    13    0.100000D+01    0.910260D+00    0.000000D+00    0.209526D+00
   0    14    0.100000D+01    0.913225D+00    0.000000D+00    0.204751D+00
   0    15    0.100000D+01    0.916376D+00    0.000000D+00    0.199521D+00
   0    16    0.100000D+01    0.919705D+00    0.000000D+00    0.193817D+00
   0    17    0.100000D+01    0.923204D+00    0.000000D+00    0.187617D+00
   0    18    0.100000D+01    0.926867D+00    0.000000D+00    0.180897D+00
   0    19    0.100000D+01    0.930688D+00    0.000000D+00    0.173634D+00
   0    20    0.100000D+01    0.934662D+00    0.399680D-10    0.165800D+00
   0    21    0.100000D+01    0.938785D+00   -0.173195D-09    0.157366D+00
   0    22    0.100000D+01    0.943053D+00    0.572875D-09    0.148302D+00
   0    23    0.100000D+01    0.947467D+00   -0.562217D-08    0.138573D+00
   0    24    0.100000D+01    0.952026D+00    0.513456D-07    0.128146D+00
   0    25    0.100000D+01    0.956734D+00    0.444924D-06    0.116982D+00
   0    26    0.100000D+01    0.961597D+00   -0.379807D-05    0.105041D+00
   0    27    0.100000D+01    0.966627D+00   -0.336239D-04    0.922771D-01
   0    28    0.100000D+01    0.971839D+00    0.798178D-04    0.786374D-01
   0    29    0.999997D+00    0.977261D+00    0.178202D-03    0.640518D-01
   0    30    0.999979D+00    0.982935D+00   -0.595926D-02    0.484181D-01
   0    31    0.999863D+00    0.988940D+00    0.326500D-01    0.315524D-01
   0    32    0.999120D+00    0.995435D+00    0.281742D+00    0.130613D-01
   0    33    0.994388D+00    0.100268D+01    0.290190D+01   -0.766795D-02
   0    34    0.965842D+00    0.101073D+01    0.887683D+01   -0.303079D-01
   0    35    0.806463D+00    0.102152D+01    0.307824D+02   -0.611122D-01
   0    36    0.282485D+00    0.102873D+01   -0.694136D+02   -0.791552D-01
   0    37    0.653515D-01    0.102460D+01   -0.329257D+02   -0.683207D-01
   0    38    0.197879D-01    0.102135D+01    0.930693D+01   -0.607963D-01
   0    39    0.100204D-01    0.101755D+01   -0.221492D+00   -0.500049D-01
   0    40    0.851253D-02    0.101429D+01   -0.985452D+00   -0.405347D-01
   0    41    0.938547D-02    0.101136D+01    0.929547D+00   -0.328076D-01
   0    42    0.101129D-01    0.100861D+01    0.778908D+00   -0.243240D-01
   0    43    0.106757D-01    0.100741D+01   -0.372370D+01   -0.213205D-01
   0    44    0.110163D-01    0.100610D+01   -0.662266D+01   -0.174923D-01
   0    45    0.112745D-01    0.100561D+01   -0.409927D+01   -0.158556D-01
   0    46    0.114110D-01    0.100410D+01    0.249370D+01   -0.121618D-01
   0    47    0.114972D-01    0.100369D+01    0.301798D+01   -0.111393D-01
   0    48    0.117250D-01    0.100295D+01    0.580107D+01   -0.823694D-02
   0    49    0.117987D-01    0.100191D+01   -0.417258D+01   -0.545725D-02
   0    50    0.120862D-01    0.100132D+01    0.296665D+01   -0.374466D-02
   0    51    0.120331D-01    0.100290D+01    0.172398D+01   -0.839946D-02
   0    52    0.121709D-01    0.100205D+01    0.283987D+01   -0.575807D-02
   0    53    0.124220D-01    0.100216D+01    0.272550D+01   -0.627436D-02
   0    54    0.123475D-01    0.100164D+01    0.387853D+01   -0.497865D-02
   0    55    0.129124D-01    0.100137D+01    0.570968D+01   -0.322369D-02
   0    56    0.128973D-01    0.100215D+01   -0.510771D+01   -0.588037D-02
   0    57    0.132527D-01    0.100185D+01   -0.251803D+01   -0.576593D-02
   0    58    0.133801D-01    0.100073D+01    0.354192D+01   -0.153115D-02
   0    59    0.132706D-01    0.999260D+00    0.715340D+01    0.190001D-02
   0    60    0.138593D-01    0.999805D+00   -0.867025D+01    0.836155D-03
   0    61    0.137496D-01    0.998640D+00    0.510440D+01    0.359441D-02
   0    62    0.138649D-01    0.999377D+00    0.148547D+01    0.157740D-02
   0    63    0.137268D-01    0.999106D+00   -0.499761D+01    0.244602D-02
   0    64    0.138016D-01    0.999366D+00   -0.145989D+01    0.127637D-02
   0    65    0.140692D-01    0.999205D+00    0.922464D+00    0.216415D-02
   0    66    0.141184D-01    0.998471D+00    0.792125D+01    0.409539D-02
   0    67    0.140520D-01    0.997931D+00    0.571596D+01    0.671918D-02
   0    68    0.141326D-01    0.998380D+00    0.429828D+01    0.441939D-02
   0    69    0.145636D-01    0.998379D+00    0.800806D+01    0.462401D-02
   0    70    0.143603D-01    0.998609D+00    0.246222D-01    0.372474D-02
   0    71    0.145737D-01    0.998254D+00    0.150584D+01    0.566841D-02
   0    72    0.144647D-01    0.997979D+00   -0.848803D+00    0.585597D-02
   0    73    0.146615D-01    0.996721D+00    0.497223D+01    0.930984D-02
   0    74    0.146326D-01    0.997219D+00    0.278789D+00    0.802374D-02
   0    75    0.145618D-01    0.996675D+00   -0.590621D+01    0.895339D-02
   0    76    0.145561D-01    0.997292D+00    0.892346D+00    0.746896D-02
   0    77    0.145178D-01    0.997025D+00    0.156337D+01    0.881294D-02
   0    78    0.144773D-01    0.997037D+00    0.447220D+01    0.789672D-02
   0    79    0.143075D-01    0.996655D+00   -0.169465D+01    0.953363D-02
   0    80    0.146513D-01    0.997127D+00    0.553848D+01    0.879798D-02
   0    81    0.146150D-01    0.996591D+00    0.915208D+01    0.102014D-01
   0    82    0.148435D-01    0.996794D+00   -0.657649D+00    0.983964D-02
   0    83    0.150900D-01    0.996530D+00   -0.613082D+01    0.101361D-01
   0    84    0.145830D-01    0.996235D+00    0.157455D+01    0.101328D-01
   0    85    0.148310D-01    0.996143D+00   -0.300593D+01    0.115902D-01
   0    86    0.146775D-01    0.997252D+00    0.165627D+01    0.850937D-02
   0    87    0.149190D-01    0.996488D+00    0.439825D+01    0.979709D-02
   0    88    0.144970D-01    0.997133D+00   -0.581695D+01    0.749514D-02
   0    89    0.149313D-01    0.996741D+00    0.849109D+00    0.936883D-02
   0    90    0.150167D-01    0.998254D+00   -0.251138D+01    0.534509D-02
   0    91    0.151067D-01    0.998046D+00    0.734657D+01    0.524463D-02
   0    92    0.151200D-01    0.996793D+00   -0.325413D+01    0.897214D-02
   0    93    0.145388D-01    0.997517D+00    0.358332D+01    0.747657D-02
   0    94    0.146059D-01    0.998059D+00    0.602452D+00    0.607855D-02
   0    95    0.147165D-01    0.996432D+00    0.782748D+01    0.107901D-01
   0    96    0.147989D-01    0.996131D+00   -0.744691D+01    0.114489D-01
   0    97    0.148362D-01    0.997074D+00    0.701919D+00    0.774954D-02
   0    98    0.149519D-01    0.997526D+00   -0.379890D+01    0.721576D-02
   0    99    0.150082D-01    0.997750D+00   -0.273307D+01    0.668970D-02
   0   100    0.146922D-01    0.997368D+00    0.919430D+01    0.770062D-02
   0   101    0.149050D-01    0.996742D+00   -0.249510D+01    0.893563D-02
   0   102    0.145982D-01    0.997266D+00    0.255016D+01    0.812098D-02
   0   103    0.145683D-01    0.996466D+00   -0.584504D+01    0.951421D-02
   0   104    0.150876D-01    0.996055D+00   -0.891670D+01    0.107927D-01
   0   105    0.152602D-01    0.996804D+00   -0.136077D+01    0.871673D-02
   0   106    0.150594D-01    0.997247D+00    0.477533D+01    0.731591D-02
   0   107    0.144841D-01    0.997469D+00    0.297002D+00    0.738889D-02
   0   108    0.149081D-01    0.996331D+00   -0.524280D+00    0.108161D-01
   0   109    0.149215D-01    0.997682D+00    0.353867D+01    0.685825D-02
   0   110    0.146758D-01    0.997023D+00    0.617276D+00    0.913353D-02
   0   111    0.147791D-01    0.998320D+00   -0.432827D+01    0.476694D-02
   0   112    0.150695D-01    0.997267D+00    0.504980D+00    0.791814D-02
   0   113    0.149669D-01    0.996636D+00    0.153481D+01    0.103118D-01
   0   114    0.148095D-01    0.996948D+00   -0.606187D+01    0.870442D-02
   0   115    0.148305D-01    0.997717D+00    0.938058D+01    0.697038D-02
   0   116    0.148822D-01    0.997239D+00   -0.822235D+01    0.800618D-02
   0   117    0.150531D-01    0.996426D+00   -0.538765D+01    0.102849D-01
   0   118    0.155148D-01    0.996539D+00   -0.805212D+01    0.100030D-01
   0   119    0.150512D-01    0.996961D+00   -0.635828D+01    0.885313D-02
   0   120    0.148669D-01    0.997008D+00   -0.436852D+01    0.785328D-02
   0   121    0.154005D-01    0.997987D+00   -0.891412D+01    0.550805D-02
   0   122    0.150340D-01    0.997231D+00    0.869574D+01    0.765317D-02
   0   123    0.150317D-01    0.997583D+00   -0.757628D+01    0.689390D-02
   0   124    0.149606D-01    0.998007D+00    0.281579D+01    0.624280D-02
   0   125    0.147448D-01    0.996644D+00    0.378749D+01    0.927569D-02
   0   126    0.148017D-01    0.996268D+00   -0.684038D+00    0.100865D-01
   0   127    0.146030D-01    0.996331D+00    0.252135D+01    0.110950D-01
   0   128    0.147035D-01    0.997181D+00    0.508424D+01    0.792639D-02
   0   129    0.149894D-01    0.996974D+00    0.443237D+00    0.854598D-02
   0   130    0.143098D-01    0.997395D+00   -0.211889D+01    0.709112D-02
   0   131    0.146054D-01    0.997753D+00    0.811734D+01    0.592219D-02
   0   132    0.147481D-01    0.998166D+00    0.303278D+01    0.594022D-02
   0   133    0.143862D-01    0.998053D+00    0.750047D+01    0.517137D-02
   0   134    0.146427D-01    0.997842D+00    0.451690D+01    0.696037D-02
   0   135    0.149281D-01    0.998440D+00    0.419873D+01    0.448081D-02
   0   136    0.150039D-01    0.997244D+00   -0.790078D+01    0.824182D-02
   0   137    0.148694D-01    0.997945D+00   -0.642162D+01    0.533266D-02
   0   138    0.144155D-01    0.998441D+00    0.143702D+01    0.398890D-02
   0   139    0.145309D-01    0.997681D+00   -0.405869D+01    0.662492D-02
   0   140    0.145582D-01    0.997099D+00    0.211613D+01    0.890786D-02
   0   141    0.146495D-01    0.997173D+00    0.404465D+01    0.828361D-02
   0   142    0.144474D-01    0.996085D+00    0.130183D+01    0.118001D-01
   0   143    0.144878D-01    0.996951D+00    0.594705D+01    0.883686D-02
   0   144    0.148897D-01    0.998243D+00   -0.734216D+01    0.479433D-02
   0   145    0.146132D-01    0.997953D+00   -0.705163D+01    0.603204D-02
   0   146    0.143954D-01    0.999228D+00   -0.522364D+01    0.196530D-02
   0   147    0.142959D-01    0.999303D+00   -0.473971D+01    0.275540D-02
   0   148    0.144981D-01    0.998455D+00    0.518146D+01    0.422810D-02
   0   149    0.144596D-01    0.998292D+00    0.681446D+01    0.431959D-02
   0   150    0.152949D-01    0.997808D+00   -0.426680D+01    0.568600D-02
   0   151    0.148329D-01    0.997977D+00    0.257599D+00    0.603764D-02
   0   152    0.146200D-01    0.997234D+00   -0.253831D+01    0.744366D-02
   0   153    0.145515D-01    0.997709D+00    0.502335D+01    0.706460D-02
   0   154    0.145456D-01    0.997442D+00   -0.427376D+01    0.737581D-02
   0   155    0.144154D-01    0.997296D+00    0.195143D+01    0.757675D-02
   0   156    0.144068D-01    0.997663D+00    0.695146D+01    0.619591D-02
   0   157    0.145464D-01    0.997526D+00    0.713185D+01    0.761577D-02
   0   158    0.147630D-01    0.997733D+00   -0.210555D+00    0.640726D-02
   0   159    0.145688D-01    0.999400D+00   -0.776898D+00    0.149640D-02
   0   160    0.146161D-01    0.998403D+00   -0.652677D+01    0.425791D-02
   0   161    0.145590D-01    0.997994D+00    0.624840D+01    0.652640D-02
   0   162    0.146045D-01    0.998428D+00   -0.619639D+00    0.453414D-02
   0   163    0.139868D-01    0.997855D+00   -0.379650D-01    0.623115D-02
   0   164    0.143438D-01    0.997698D+00   -0.475738D+01    0.673788D-02
   0   165    0.141694D-01    0.997887D+00    0.260429D+01    0.554804D-02
   0   166    0.140548D-01    0.998007D+00   -0.651893D+01    0.585945D-02
   0   167    0.140149D-01    0.998101D+00   -0.155702D+01    0.515979D-02
   0   168    0.141316D-01    0.999058D+00    0.107219D+01    0.224154D-02
   0   169    0.142738D-01    0.998617D+00    0.330847D+01    0.370252D-02
   0   170    0.141597D-01    0.998143D+00   -0.552682D+01    0.574877D-02
   0   171    0.143334D-01    0.997579D+00   -0.871632D+01    0.669794D-02
   0   172    0.139468D-01    0.999480D+00   -0.639166D+01    0.854222D-03
   0   173    0.141885D-01    0.998082D+00   -0.784907D+01    0.550398D-02
   0   174    0.139645D-01    0.998974D+00   -0.319786D+01    0.271060D-02
   0   175    0.142878D-01    0.999041D+00    0.201726D+01    0.326543D-02
   0   176    0.148065D-01    0.998348D+00   -0.699431D+00    0.503089D-02
   0   177    0.143907D-01    0.998307D+00    0.322082D+01    0.466175D-02
   0   178    0.140649D-01    0.999422D+00   -0.690457D+01    0.202579D-02
   0   179    0.143609D-01    0.998478D+00   -0.564612D+01    0.403549D-02
   0   180    0.144968D-01    0.998467D+00   -0.509324D+01    0.487661D-02
   0   181    0.144850D-01    0.997398D+00    0.417244D+00    0.757951D-02
   0   182    0.145508D-01    0.997670D+00    0.504765D+01    0.736946D-02
   0   183    0.147292D-01    0.997848D+00   -0.668327D+01    0.547289D-02
   0   184    0.145824D-01    0.998889D+00    0.313816D+01    0.363289D-02
   0   185    0.150852D-01    0.998740D+00    0.111734D+01    0.366729D-02
   0   186    0.148791D-01    0.998303D+00   -0.786361D+01    0.508222D-02
   0   187    0.149801D-01    0.998970D+00   -0.666338D+01    0.253261D-02
   0   188    0.149516D-01    0.998576D+00   -0.258136D+01    0.336041D-02
   0   189    0.147730D-01    0.997312D+00   -0.464414D+01    0.714657D-02
   0   190    0.149554D-01    0.997607D+00   -0.620623D+01    0.648536D-02
   0   191    0.149724D-01    0.996906D+00   -0.173777D+01    0.854712D-02
   0   192    0.148446D-01    0.997151D+00   -0.314373D+01    0.854606D-02
   0   193    0.152146D-01    0.995155D+00   -0.595246D+01    0.140263D-01
   0   194    0.155798D-01    0.995614D+00   -0.392908D+01    0.125245D-01
   0   195    0.151766D-01    0.995749D+00   -0.243318D+01    0.125139D-01
   0   196    0.153622D-01    0.994517D+00   -0.629784D+01    0.153767D-01
   0   197    0.156648D-01    0.994320D+00    0.381590D+01    0.165745D-01
   0   198    0.152830D-01    0.993125D+00   -0.936487D+01    0.195203D-01
   0   199    0.151535D-01    0.991079D+00   -0.298105D+01    0.251482D-01
   0   200    0.160357D-01    0.988878D+00   -0.131875D+00    0.321740D-01
   0   201    0.173931D-01    0.983930D+00   -0.519149D+01    0.466101D-01
   0   202    0.198296D-01    0.976638D+00    0.788481D+01    0.666591D-01
   0   203    0.224989D-01    0.962845D+00   -0.119700D+02    0.102854D+00
   0   204    0.255142D-01    0.941021D+00   -0.131048D+02    0.152575D+00
   0   205    0.275613D-01    0.907457D+00    0.367267D+01    0.214151D+00
   0   206    0.250128D-01    0.856819D+00   -0.423760D+01    0.275839D+00
   0   207    0.183926D-01    0.781902D+00    0.104121D+02    0.327126D+00
   0   208    0.106853D-01    0.686237D+00    0.496613D+01    0.361751D+00
   0   209    0.508219D-02    0.578500D+00    0.190134D+01    0.383346D+00
   0   210    0.207338D-02    0.469665D+00    0.206955D+01    0.396660D+00
   0   211    0.789381D-03    0.369212D+00    0.635350D+00    0.404992D+00
   0   212    0.288335D-03    0.282376D+00    0.986057D-02    0.410357D+00
   0   213    0.983786D-04    0.210939D+00    0.111408D+00    0.413901D+00
   0   214    0.336425D-04    0.154374D+00    0.339309D-01    0.416289D+00
   0   215    0.108276D-04    0.110973D+00    0.525314D-02    0.417918D+00
   0   216    0.339927D-05    0.785294D-01    0.307573D-02    0.419037D+00
   0   217    0.104645D-05    0.548101D-01    0.901470D-03    0.419806D+00
   0   218    0.319431D-06    0.377961D-01    0.130672D-03    0.420335D+00
   0   219    0.972455D-07    0.257901D-01    0.102855D-03    0.420698D+00
   0   220    0.287388D-07    0.174365D-01    0.320154D-04    0.420945D+00
   0   221    0.824119D-08    0.116945D-01    0.394969D-05    0.421112D+00
   0   222    0.237108D-08    0.778883D-02    0.275259D-05    0.421225D+00
   0   223    0.674686D-09    0.515612D-02    0.865811D-06    0.421300D+00
   0   224    0.202140D-09    0.339530D-02    0.354273D-07    0.421351D+00
   0   225    0.631971D-10    0.222554D-02    0.779772D-07    0.421384D+00
   0   226    0.189296D-10    0.145297D-02    0.152998D-07    0.421406D+00
   0   227    0.562496D-11    0.945281D-03    0.316007D-08    0.421420D+00
   0   228    0.171892D-11    0.613120D-03    0.183270D-08    0.421430D+00
   0   229    0.507948D-12    0.396623D-03    0.929663D-10    0.421436D+00
   0   230    0.145270D-12    0.255977D-03    0.442358D-10    0.421440D+00
   0   231    0.422918D-13    0.164870D-03    0.660879D-11    0.421442D+00
   0   232    0.120620D-13    0.106000D-03    0.143667D-10    0.421444D+00
   0   233    0.339166D-14    0.680435D-04    0.293212D-11    0.421445D+00
   0   234    0.936043D-15    0.436180D-04    0.551497D-12    0.421446D+00
   0   235    0.255134D-15    0.279262D-04    0.335146D-12    0.421446D+00
   0   236    0.706091D-16    0.178601D-04    0.142832D-13    0.421447D+00
   0   237    0.192994D-16    0.114113D-04    0.181202D-13    0.421447D+00
   0   238    0.527895D-17    0.728469D-05    0.514835D-14    0.421447D+00
   0   239    0.141753D-17    0.464676D-05    0.163524D-14    0.421447D+00
   0   240    0.377151D-18    0.296202D-05    0.155065D-15    0.421447D+00
   0   241    0.983721D-19    0.188692D-05    0.561352D-16    0.421447D+00
   0   242    0.250677D-19    0.120137D-05    0.249845D-16    0.421447D+00
   0   243    0.655623D-20    0.764499D-06    0.456740D-17    0.421447D+00
   0   244    0.163959D-20    0.486271D-06    0.804278D-18    0.421447D+00
   0   245    0.419220D-21    0.309172D-06    0.120767D-18    0.421447D+00
   0   246    0.108124D-21    0.196497D-06    0.988177D-19    0.421447D+00
   0   247    0.271370D-22    0.124843D-06    0.322462D-19    0.421447D+00
   0   248    0.691862D-23    0.792934D-07    0.474516D-20    0.421447D+00
   0   249    0.171987D-23    0.503485D-07    0.118788D-20    0.421447D+00
   0   250    0.445166D-24    0.319612D-07    0.224377D-21    0.421447D+00
   0   251    0.107942D-24    0.202842D-07    0.671474D-22    0.421447D+00
   0   252    0.272569D-25    0.128705D-07    0.217934D-22    0.421447D+00
   0   253    0.695370D-26    0.816491D-08    0.751652D-23    0.421447D+00
   0   254    0.167848D-26    0.517878D-08    0.483300D-24    0.421447D+00
   0   255    0.425161D-27    0.328422D-08    0.518799D-24    0.421447D+00
   0   256    0.104223D-27    0.208243D-08    0.113202D-24    0.421447D+00
   0   257    0.257314D-28    0.132023D-08    0.231995D-25    0.421447D+00
   0   258    0.645837D-29    0.836901D-09    0.661565D-26    0.421447D+00
   0   259    0.158005D-29    0.530454D-09    0.102903D-26    0.421447D+00
   0   260    0.379277D-30    0.336183D-09    0.499174D-27    0.421447D+00
   0   261    0.941286D-31    0.213040D-09    0.110357D-27    0.421447D+00
   0   262    0.230963D-31    0.134992D-09    0.276545D-28    0.421447D+00
   0   263    0.562270D-32    0.855298D-10    0.467000D-29    0.421447D+00
   0   264    0.134558D-32    0.541871D-10    0.112531D-29    0.421447D+00
   0   265    0.323295D-33    0.343276D-10    0.111101D-30    0.421447D+00
   0   266    0.799708D-34    0.217452D-10    0.780270D-31    0.421447D+00
   0   267    0.192496D-34    0.137740D-10    0.261698D-31    0.421447D+00
   0   268    0.462181D-35    0.872430D-11    0.627493D-32    0.421447D+00
   0   269    0.114362D-35    0.552561D-11    0.419484D-33    0.421447D+00
   0   270    0.278647D-36    0.349953D-11    0.246411D-33    0.421447D+00
   0   271    0.659341D-37    0.221626D-11    0.828501D-34    0.421447D+00
   0   272    0.158664D-37    0.140351D-11    0.191138D-34    0.421447D+00
   0   273    0.386900D-38    0.888776D-12    0.476144D-35    0.421447D+00
   0   274    0.933012D-39    0.562801D-12    0.110766D-35    0.421447D+00
   0   275    0.225950D-39    0.356372D-12    0.656779D-37    0.421447D+00
   0   276    0.536152D-40    0.225652D-12    0.223490D-37    0.421447D+00
   0   277    0.126577D-40    0.142878D-12    0.188167D-37    0.421447D+00
   0   278    0.305495D-41    0.904643D-13    0.937166D-39    0.421447D+00
   0   279    0.740190D-42    0.572770D-13    0.944744D-39    0.421447D+00
   0   280    0.182668D-42    0.362638D-13    0.157172D-39    0.421447D+00
   0   281    0.435742D-43    0.229593D-13    0.295024D-40    0.421447D+00
   0   282    0.103302D-43    0.145357D-13    0.121114D-40    0.421447D+00
   0   283    0.251674D-44    0.920246D-14    0.215728D-41    0.421447D+00
   0   284    0.609347D-45    0.582594D-14    0.412014D-42    0.421447D+00
   0   285    0.142193D-45    0.368826D-14    0.190410D-42    0.421447D+00
   0   286    0.350128D-46    0.233492D-14    0.423559D-43    0.421447D+00
   0   287    0.837712D-47    0.147814D-14    0.779412D-44    0.421447D+00
   0   288    0.190878D-47    0.935744D-15    0.984389D-45    0.421447D+00
   0   289    0.459759D-48    0.592370D-15    0.574555D-45    0.421447D+00
   0   290    0.109434D-48    0.374994D-15    0.102027D-45    0.421447D+00
   0   291    0.262825D-49    0.237385D-15    0.335639D-46    0.421447D+00
   0   292    0.640825D-50    0.150272D-15    0.818486D-47    0.421447D+00
   0   293    0.149935D-50    0.951261D-16    0.195900D-47    0.421447D+00
   0   294    0.349005D-51    0.602169D-16    0.359764D-48    0.421447D+00
   0   295    0.863025D-52    0.381184D-16    0.367665D-49    0.421447D+00
   0   296    0.206796D-52    0.241295D-16    0.119588D-49    0.421447D+00
   0   297    0.497019D-53    0.152743D-16    0.236180D-50    0.421447D+00
   0   298    0.114874D-53    0.966872D-17    0.109192D-50    0.421447D+00
   0   299    0.274280D-54    0.612034D-17    0.214597D-51    0.421447D+00
   0   300    0.651547D-55    0.387418D-17    0.523624D-52    0.421447D+00
   0   301    0.152180D-55    0.245234D-17    0.157136D-52    0.421447D+00
   0   302    0.366550D-56    0.155231D-17    0.293877D-53    0.421447D+00
   0   303    0.856128D-57    0.982598D-18    0.117242D-53    0.421447D+00
   0   304    0.206385D-57    0.621969D-18    0.147937D-54    0.421447D+00
   0   305    0.480750D-58    0.393694D-18    0.331916D-55    0.421447D+00
   0   306    0.115845D-58    0.249198D-18    0.870962D-56    0.421447D+00
   0   307    0.278096D-59    0.157735D-18    0.610967D-57    0.421447D+00
   0   308    0.648732D-60    0.998406D-19    0.721528D-57    0.421447D+00
   0   309    0.155986D-60    0.631949D-19    0.130289D-57    0.421447D+00
   0   310    0.370605D-61    0.399993D-19    0.397704D-58    0.421447D+00
   0   311    0.850564D-62    0.253173D-19    0.117237D-58    0.421447D+00
   0   312    0.200312D-62    0.160243D-19    0.298075D-59    0.421447D+00
   0   313    0.487249D-63    0.101422D-19    0.446784D-60    0.421447D+00
   0   314    0.113650D-63    0.641924D-20    0.510149D-61    0.421447D+00
   0   315    0.270237D-64    0.406281D-20    0.110782D-61    0.421447D+00
   0   316    0.658806D-65    0.257137D-20    0.312126D-62    0.421447D+00
   0   317    0.150460D-65    0.162740D-20    0.229704D-62    0.421447D+00
   0   318    0.355098D-66    0.102996D-20    0.259804D-63    0.421447D+00
   0   319    0.821864D-67    0.651832D-21    0.309872D-64    0.421447D+00
   0   320    0.194096D-67    0.412520D-21    0.263534D-64    0.421447D+00
   0   321    0.470022D-68    0.261064D-21    0.418723D-65    0.421447D+00
   0   322    0.110719D-68    0.165212D-21    0.965061D-66    0.421447D+00
   0   323    0.261518D-69    0.104551D-21    0.387000D-66    0.421447D+00
   0   324    0.620133D-70    0.661615D-22    0.724108D-67    0.421447D+00
   0   325    0.145019D-70    0.418673D-22    0.701445D-68    0.421447D+00
   0   326    0.335648D-71    0.264933D-22    0.481065D-68    0.421447D+00
   0   327    0.799307D-72    0.167644D-22    0.472577D-69    0.421447D+00
   0   328    0.190992D-72    0.106079D-22    0.267501D-69    0.421447D+00
   0   329    0.436908D-73    0.671221D-23    0.160909D-70    0.421447D+00
   0   330    0.105969D-73    0.424708D-23    0.311718D-71    0.421447D+00
   0   331    0.246196D-74    0.268724D-23    0.278040D-71    0.421447D+00
   0   332    0.577811D-75    0.170025D-23    0.415790D-72    0.421447D+00
   0   333    0.140108D-75    0.107575D-23    0.152291D-72    0.421447D+00
   0   334    0.334087D-76    0.680607D-24    0.120945D-73    0.421447D+00
   0   335    0.781989D-77    0.430599D-24    0.110636D-73    0.421447D+00
   0   336    0.182693D-77    0.272421D-24    0.115583D-74    0.421447D+00
   0   337    0.425293D-78    0.172345D-24    0.531596D-75    0.421447D+00
   0   338    0.103985D-78    0.109029D-24    0.142197D-75    0.421447D+00
   0   339    0.248247D-79    0.689731D-25    0.333295D-76    0.421447D+00
   0   340    0.580995D-80    0.436320D-25    0.334749D-77    0.421447D+00
   0   341    0.137282D-80    0.276006D-25    0.117502D-77    0.421447D+00
   0   342    0.321006D-81    0.174591D-25    0.448990D-78    0.421447D+00
   0   343    0.767494D-82    0.110436D-25    0.345383D-79    0.421447D+00
   0   344    0.178487D-82    0.698538D-26    0.233974D-79    0.421447D+00
   0   345    0.430203D-83    0.441831D-26    0.437936D-80    0.421447D+00
   0   346    0.103727D-83    0.279453D-26    0.941413D-81    0.421447D+00
   0   347    0.239523D-84    0.176745D-26    0.312476D-81    0.421447D+00
   0   348    0.536221D-85    0.111782D-26    0.655106D-82    0.421447D+00
   0   349    0.126636D-85    0.706938D-27    0.947748D-83    0.421447D+00
   0   350    0.305972D-86    0.447070D-27    0.138120D-83    0.421447D+00
   0   351    0.742499D-87    0.282717D-27    0.751669D-84    0.421447D+00
   0   352    0.175537D-87    0.178777D-27    0.743698D-85    0.421447D+00
   0   353    0.408081D-88    0.113045D-27    0.207105D-85    0.421447D+00
   0   354    0.963430D-89    0.714782D-28    0.380637D-86    0.421447D+00
   0   355    0.224035D-89    0.451933D-28    0.220224D-86    0.421447D+00
   0   356    0.529381D-90    0.285727D-28    0.714059D-87    0.421447D+00
   0   357    0.127299D-90    0.180637D-28    0.818898D-88    0.421447D+00
   0   358    0.297853D-91    0.114192D-28    0.155707D-88    0.421447D+00
   0   359    0.696333D-92    0.721832D-29    0.545646D-89    0.421447D+00
   0   360    0.161695D-92    0.456256D-29    0.695592D-90    0.421447D+00
   0   361    0.388321D-93    0.288371D-29    0.283630D-90    0.421447D+00
   0   362    0.900954D-94    0.182247D-29    0.338896D-91    0.421447D+00
   0   363    0.215285D-94    0.115169D-29    0.201241D-91    0.421447D+00
   0   364    0.503662D-95    0.727733D-30    0.672176D-92    0.421447D+00
   0   365    0.118329D-95    0.459800D-30    0.119441D-92    0.421447D+00
   0   366    0.281414D-96    0.290485D-30    0.203459D-93    0.421447D+00
   0   367    0.652262D-97    0.183499D-30    0.919828D-94    0.421447D+00
   0   368    0.151037D-97    0.115903D-30    0.522378D-95    0.421447D+00
   0   369    0.355776D-98    0.731993D-31    0.213615D-95    0.421447D+00
   0   370    0.829759D-99    0.462236D-31    0.107448D-95    0.421447D+00
   0   371    0.197787D-99    0.291852D-31    0.955726D-97    0.421447D+00
   0   372    0.458701-100    0.184248D-31    0.234113D-97    0.421447D+00
   0   373    0.109474-100    0.116299D-31    0.962505D-98    0.421447D+00
   0   374    0.261120-101    0.733977D-32    0.112924D-98    0.421447D+00
   0   375    0.614468-102    0.463145D-32    0.230550D-99    0.421447D+00
   0   376    0.148959-102    0.292197D-32    0.156880D-99    0.421447D+00
   0   377    0.348527-103    0.184312D-32    0.192858-100    0.421447D+00
   0   378    0.798602-104    0.116238D-32    0.123913-100    0.421447D+00
   0   379    0.187958-104    0.732916D-33    0.146592-101    0.421447D+00
   0   380    0.440525-105    0.462027D-33    0.317614-102    0.421447D+00
   0   381    0.106380-105    0.291195D-33    0.135627-102    0.421447D+00
   0   382    0.254712-106    0.183484D-33    0.621488-104    0.421447D+00
   0   383    0.609334-107    0.115586D-33    0.710682-104    0.421447D+00
   0   384    0.141738-107    0.727949D-34    0.901636-105    0.421447D+00
   0   385    0.335293-108    0.458333D-34    0.292779-105    0.421447D+00
   0   386    0.777531-109    0.288496D-34    0.551904-106    0.421447D+00
   0   387    0.177678-109    0.181539D-34    0.226065-106    0.421447D+00
   0   388    0.419811-110    0.114201D-34    0.169738-107    0.421447D+00
   0   389    0.995570-111    0.718165D-35    0.612074-108    0.421447D+00
   0   390    0.234272-111    0.451466D-35    0.161091-108    0.421447D+00
   0   391    0.553506-112    0.283690D-35    0.393629-109    0.421447D+00
   0   392    0.130280-112    0.178165D-35    0.988418-110    0.421447D+00
   0   393    0.301476-113    0.111793D-35    0.346192-110    0.421447D+00
   0   394    0.712352-114    0.700260D-36    0.980631-111    0.421447D+00
   0   395    0.165644-114    0.436957D-36    0.656203-112    0.421447D+00
   0   396    0.393623-115    0.270126D-36    0.260862-112    0.421447D+00
   0   397    0.940995-116    0.163025D-36    0.120798-112    0.421447D+00