variables =  "IG"  "JG"  "PHI"  "Temp."  "Latent_heat"  "mm"
ZONE  I=  401  J=  101
   0     0    0.100000D+01    0.917851D+00    0.000000D+00    0.197016D+00
   0     1    0.100000D+01    0.917851D+00    0.000000D+00    0.197016D+00
   0     2    0.100000D+01    0.918010D+00    0.000000D+00    0.196744D+00
   0     3    0.100000D+01    0.918328D+00    0.000000D+00    0.196198D+00
   0     4    0.100000D+01    0.918804D+00    0.000000D+00    0.195378D+00
   0     5    0.100000D+01    0.919437D+00    0.000000D+00    0.194282D+00
   0     6    0.100000D+01    0.920226D+00    0.000000D+00    0.192907D+00
   0     7    0.100000D+01    0.921168D+00    0.000000D+00    0.191250D+00
   0     8    0.100000D+01    0.922262D+00    0.000000D+00    0.189307D+00
   0     9    0.100000D+01    0.923505D+00    0.000000D+00    0.187074D+00
   0    10    0.100000D+01    0.924894D+00    0.000000D+00    0.184547D+00
   0    11    0.100000D+01    0.926427D+00    0.000000D+00    0.181719D+00
   0    12    0.100000D+01    0.928100D+00    0.000000D+00    0.178584D+00
   0    13    0.100000D+01    0.929910D+00    0.000000D+00    0.175136D+00
   0    14    0.100000D+01    0.931853D+00    0.000000D+00    0.171369D+00
   0    15    0.100000D+01    0.933926D+00    0.000000D+00    0.167274D+00
   0    16    0.100000D+01    0.936125D+00    0.000000D+00    0.162843D+00
   0    17    0.100000D+01    0.938447D+00    0.000000D+00    0.158069D+00
   0    18    0.100000D+01    0.940888D+00    0.000000D+00    0.152943D+00
   0    19    0.100000D+01    0.943444D+00    0.000000D+00    0.147456D+00
   0    20    0.100000D+01    0.946112D+00    0.000000D+00    0.141598D+00
   0    21    0.100000D+01    0.948889D+00    0.000000D+00    0.135361D+00
   0    22    0.100000D+01    0.951773D+00    0.000000D+00    0.128735D+00
   0    23    0.100000D+01    0.954760D+00    0.266454D-10    0.121711D+00
   0    24    0.100000D+01    0.957849D+00   -0.173195D-09    0.114280D+00
   0    25    0.100000D+01    0.961040D+00   -0.506262D-09    0.106431D+00
   0    26    0.100000D+01    0.964331D+00    0.110845D-07    0.981560D-01
   0    27    0.100000D+01    0.967723D+00    0.129070D-06    0.894432D-01
   0    28    0.100000D+01    0.971220D+00   -0.172968D-06    0.802795D-01
   0    29    0.100000D+01    0.974827D+00    0.658447D-06    0.706472D-01
   0    30    0.100000D+01    0.978554D+00    0.427258D-04    0.605210D-01
   0    31    0.100000D+01    0.982416D+00    0.181749D-03    0.498624D-01
   0    32    0.999997D+00    0.986439D+00   -0.113090D-02    0.386114D-01
   0    33    0.999982D+00    0.990663D+00   -0.752260D-02    0.266685D-01
   0    34    0.999886D+00    0.995157D+00   -0.418596D-01    0.138617D-01
   0    35    0.999291D+00    0.100004D+01    0.384128D+00   -0.125197D-03
   0    36    0.995532D+00    0.100542D+01    0.266983D+01   -0.155478D-01
   0    37    0.972807D+00    0.101176D+01   -0.518310D+01   -0.334188D-01
   0    38    0.849470D+00    0.101984D+01   -0.373453D+02   -0.549527D-01
   0    39    0.362248D+00    0.102840D+01   -0.114477D+03   -0.834852D-01
   0    40    0.858833D-01    0.102584D+01   -0.146991D+02   -0.715783D-01
   0    41    0.246602D-01    0.102100D+01    0.250095D+01   -0.590479D-01
   0    42    0.110835D-01    0.101746D+01   -0.279142D+01   -0.491314D-01
   0    43    0.846898D-02    0.101426D+01   -0.249395D+01   -0.403407D-01
   0    44    0.885908D-02    0.101185D+01   -0.378081D+01   -0.337548D-01
   0    45    0.927624D-02    0.100931D+01    0.304922D+01   -0.267433D-01
   0    46    0.100588D-01    0.100768D+01    0.319150D+01   -0.223109D-01
   0    47    0.108595D-01    0.100657D+01    0.463884D+01   -0.187214D-01
   0    48    0.110967D-01    0.100570D+01   -0.359188D+00   -0.165704D-01
   0    49    0.116425D-01    0.100477D+01   -0.225820D+01   -0.133570D-01
   0    50    0.115637D-01    0.100351D+01   -0.393414D+01   -0.105683D-01
   0    51    0.118199D-01    0.100374D+01    0.322824D+01   -0.104423D-01
   0    52    0.121002D-01    0.100225D+01   -0.203822D+01   -0.629198D-02
   0    53    0.122324D-01    0.100141D+01   -0.157560D+01   -0.469565D-02
   0    54    0.123135D-01    0.100238D+01   -0.483244D+01   -0.701204D-02
   0    55    0.123933D-01    0.100239D+01    0.639390D+00   -0.713368D-02
   0    56    0.124837D-01    0.100255D+01   -0.286169D+01   -0.700906D-02
   0    57    0.127192D-01    0.100177D+01    0.464679D+01   -0.457224D-02
   0    58    0.132425D-01    0.100101D+01   -0.206800D+01   -0.314676D-02
   0    59    0.136090D-01    0.100100D+01   -0.329586D+01   -0.275244D-02
   0    60    0.133156D-01    0.999676D+00    0.831047D+01    0.123967D-02
   0    61    0.134135D-01    0.999615D+00    0.712786D+00    0.161052D-02
   0    62    0.137309D-01    0.999635D+00   -0.281133D+01    0.165653D-02
   0    63    0.136703D-01    0.999360D+00   -0.370761D+01    0.188390D-02
   0    64    0.134733D-01    0.999067D+00    0.220676D+01    0.333468D-02
   0    65    0.135388D-01    0.998683D+00    0.382410D+01    0.448323D-02
   0    66    0.140091D-01    0.997917D+00   -0.117925D+01    0.614250D-02
   0    67    0.140812D-01    0.998587D+00   -0.142030D+00    0.389451D-02
   0    68    0.144481D-01    0.998274D+00    0.258111D+01    0.497443D-02
   0    69    0.144109D-01    0.997250D+00   -0.354233D+01    0.788719D-02
   0    70    0.145195D-01    0.997620D+00    0.636084D+01    0.675892D-02
   0    71    0.144709D-01    0.998066D+00   -0.814338D+01    0.501624D-02
   0    72    0.147523D-01    0.996600D+00   -0.342530D+01    0.933534D-02
   0    73    0.146875D-01    0.997932D+00   -0.453419D+01    0.640608D-02
   0    74    0.147738D-01    0.996892D+00   -0.172453D+01    0.924041D-02
   0    75    0.148280D-01    0.995677D+00   -0.290687D+01    0.124629D-01
   0    76    0.148983D-01    0.995685D+00    0.588233D+01    0.124433D-01
   0    77    0.148913D-01    0.996624D+00    0.633174D+01    0.991807D-02
   0    78    0.147587D-01    0.997514D+00   -0.823274D+00    0.738392D-02
   0    79    0.148829D-01    0.997481D+00   -0.289684D+01    0.785671D-02
   0    80    0.149495D-01    0.997797D+00   -0.456024D+01    0.556832D-02
   0    81    0.152990D-01    0.997924D+00   -0.884804D+01    0.596146D-02
   0    82    0.149601D-01    0.996992D+00   -0.304848D+01    0.830376D-02
   0    83    0.146057D-01    0.997068D+00   -0.732036D+00    0.857067D-02
   0    84    0.148345D-01    0.997248D+00    0.880376D+01    0.826650D-02
   0    85    0.150936D-01    0.998552D+00    0.672872D+01    0.412717D-02
   0    86    0.151338D-01    0.998035D+00    0.526644D+01    0.541214D-02
   0    87    0.153403D-01    0.997387D+00    0.866913D+01    0.664246D-02
   0    88    0.155703D-01    0.997127D+00   -0.640993D+01    0.829307D-02
   0    89    0.156672D-01    0.996793D+00    0.740479D+01    0.959200D-02
   0    90    0.150160D-01    0.996453D+00   -0.124729D+01    0.109726D-01
   0    91    0.152299D-01    0.995264D+00    0.939886D+00    0.144072D-01
   0    92    0.153131D-01    0.996630D+00   -0.368634D+01    0.941514D-02
   0    93    0.150371D-01    0.996911D+00    0.536766D-01    0.887332D-02
   0    94    0.155872D-01    0.997846D+00   -0.172810D+01    0.654728D-02
   0    95    0.150670D-01    0.998192D+00    0.622260D+01    0.584834D-02
   0    96    0.150291D-01    0.997524D+00   -0.225184D+01    0.672889D-02
   0    97    0.155105D-01    0.997721D+00    0.157562D+01    0.723149D-02
   0    98    0.153547D-01    0.996144D+00   -0.817265D+01    0.116729D-01
   0    99    0.150863D-01    0.996627D+00   -0.613384D+01    0.952629D-02
   0   100    0.152500D-01    0.996275D+00    0.579059D+01    0.111372D-01
   0   101    0.152809D-01    0.994953D+00   -0.152703D+01    0.141320D-01
   0   102    0.153243D-01    0.995307D+00    0.157698D+01    0.134794D-01
   0   103    0.154680D-01    0.994838D+00    0.724575D+01    0.149218D-01
   0   104    0.155425D-01    0.995651D+00    0.448531D+01    0.123091D-01
   0   105    0.152539D-01    0.996379D+00   -0.123965D+01    0.101338D-01
   0   106    0.150188D-01    0.995643D+00   -0.823439D+00    0.130129D-01
   0   107    0.155463D-01    0.995817D+00   -0.491976D+01    0.120459D-01
   0   108    0.156474D-01    0.996561D+00    0.111887D+01    0.104279D-01
   0   109    0.157707D-01    0.996624D+00   -0.773802D+00    0.100953D-01
   0   110    0.154118D-01    0.996033D+00   -0.648281D+01    0.118969D-01
   0   111    0.154956D-01    0.996615D+00    0.281616D+01    0.103848D-01
   0   112    0.154745D-01    0.996361D+00   -0.366515D+01    0.980394D-02
   0   113    0.155466D-01    0.996683D+00    0.794480D+01    0.919156D-02
   0   114    0.153663D-01    0.997254D+00   -0.397664D+01    0.778125D-02
   0   115    0.157541D-01    0.996948D+00   -0.610991D+01    0.874798D-02
   0   116    0.152826D-01    0.995349D+00    0.763163D+01    0.137505D-01
   0   117    0.150257D-01    0.995597D+00    0.975714D+01    0.117642D-01
   0   118    0.152150D-01    0.995804D+00   -0.623885D+01    0.115729D-01
   0   119    0.152280D-01    0.996122D+00   -0.166903D-01    0.108377D-01
   0   120    0.152865D-01    0.995138D+00   -0.644486D+01    0.137726D-01
   0   121    0.156049D-01    0.995460D+00    0.595058D+01    0.132568D-01
   0   122    0.155288D-01    0.996372D+00   -0.356192D+00    0.100628D-01
   0   123    0.151594D-01    0.996490D+00   -0.395757D+01    0.995946D-02
   0   124    0.153027D-01    0.996786D+00   -0.614479D+01    0.861899D-02
   0   125    0.150252D-01    0.996500D+00    0.474996D+01    0.996397D-02
   0   126    0.147594D-01    0.997448D+00   -0.147938D+01    0.779675D-02
   0   127    0.148396D-01    0.997531D+00   -0.411009D+01    0.654747D-02
   0   128    0.149484D-01    0.996780D+00   -0.140662D+01    0.889604D-02
   0   129    0.155922D-01    0.996084D+00    0.521742D+01    0.111253D-01
   0   130    0.151029D-01    0.995769D+00    0.350996D+01    0.117680D-01
   0   131    0.152736D-01    0.996344D+00    0.795684D+01    0.104032D-01
   0   132    0.150970D-01    0.996336D+00    0.426620D+01    0.997839D-02
   0   133    0.154192D-01    0.996737D+00    0.755993D+01    0.938712D-02
   0   134    0.148078D-01    0.996349D+00    0.693373D+00    0.102111D-01
   0   135    0.150639D-01    0.996697D+00    0.297797D+01    0.956668D-02
   0   136    0.154812D-01    0.996100D+00    0.719710D+01    0.111742D-01
   0   137    0.151293D-01    0.996046D+00   -0.381708D+01    0.115142D-01
   0   138    0.149500D-01    0.994795D+00    0.872218D+01    0.142205D-01
   0   139    0.156728D-01    0.995681D+00   -0.102017D+02    0.122784D-01
   0   140    0.150669D-01    0.996024D+00   -0.675660D+01    0.110599D-01
   0   141    0.154562D-01    0.995448D+00   -0.876544D+01    0.126582D-01
   0   142    0.152693D-01    0.997374D+00   -0.865188D+01    0.735497D-02
   0   143    0.151688D-01    0.997850D+00   -0.205708D+01    0.621134D-02
   0   144    0.148760D-01    0.998167D+00   -0.692070D+01    0.542043D-02
   0   145    0.153182D-01    0.997594D+00   -0.666267D+01    0.615498D-02
   0   146    0.155562D-01    0.997754D+00    0.787395D+00    0.644633D-02
   0   147    0.155077D-01    0.997253D+00    0.451730D+01    0.725819D-02
   0   148    0.148412D-01    0.996826D+00   -0.286993D+01    0.960958D-02
   0   149    0.151963D-01    0.996251D+00    0.125161D+01    0.105954D-01
   0   150    0.152034D-01    0.996210D+00    0.808413D+01    0.113065D-01
   0   151    0.148645D-01    0.995797D+00    0.142967D+01    0.118776D-01
   0   152    0.150112D-01    0.996844D+00    0.556302D+01    0.929133D-02
   0   153    0.148241D-01    0.996219D+00   -0.747235D+00    0.105570D-01
   0   154    0.150603D-01    0.996327D+00    0.621048D+01    0.109767D-01
   0   155    0.149775D-01    0.996778D+00    0.411559D+01    0.936150D-02
   0   156    0.148754D-01    0.994913D+00    0.314763D+01    0.142712D-01
   0   157    0.152946D-01    0.996011D+00    0.129061D+01    0.121129D-01
   0   158    0.152392D-01    0.997231D+00    0.490610D+01    0.747553D-02
   0   159    0.155136D-01    0.997579D+00    0.132575D+01    0.752612D-02
   0   160    0.147876D-01    0.996362D+00   -0.832385D+01    0.998085D-02
   0   161    0.148563D-01    0.996137D+00    0.400637D+01    0.104126D-01
   0   162    0.150950D-01    0.996409D+00   -0.700638D+01    0.101231D-01
   0   163    0.147719D-01    0.996338D+00    0.714139D+01    0.975777D-02
   0   164    0.148219D-01    0.996050D+00    0.117089D+01    0.115932D-01
   0   165    0.152274D-01    0.996647D+00   -0.553630D+01    0.952396D-02
   0   166    0.150673D-01    0.996782D+00   -0.548477D+01    0.973523D-02
   0   167    0.148267D-01    0.997667D+00    0.957584D+01    0.703147D-02
   0   168    0.150974D-01    0.996513D+00    0.667296D+01    0.957042D-02
   0   169    0.151188D-01    0.995712D+00   -0.704317D+01    0.130329D-01
   0   170    0.145772D-01    0.995631D+00   -0.468499D+01    0.124937D-01
   0   171    0.146870D-01    0.996099D+00    0.336249D+01    0.108826D-01
   0   172    0.146745D-01    0.997520D+00    0.858689D+01    0.735110D-02
   0   173    0.145862D-01    0.998200D+00   -0.446257D+01    0.545490D-02
   0   174    0.147617D-01    0.997357D+00   -0.807333D+01    0.723562D-02
   0   175    0.143846D-01    0.997875D+00   -0.312869D+01    0.672461D-02
   0   176    0.146130D-01    0.997131D+00    0.873853D+01    0.741673D-02
   0   177    0.145913D-01    0.997233D+00    0.142983D+01    0.839182D-02
   0   178    0.149777D-01    0.997606D+00    0.858168D+01    0.737752D-02
   0   179    0.148800D-01    0.998276D+00    0.211074D+01    0.547091D-02
   0   180    0.148216D-01    0.998705D+00    0.462902D+01    0.332464D-02
   0   181    0.145896D-01    0.999372D+00    0.277895D-01    0.164595D-02
   0   182    0.148769D-01    0.997960D+00    0.294315D+01    0.592971D-02
   0   183    0.146479D-01    0.997943D+00   -0.408647D+01    0.607082D-02
   0   184    0.144662D-01    0.997640D+00   -0.664962D+00    0.699938D-02
   0   185    0.146176D-01    0.996959D+00   -0.615961D+01    0.823763D-02
   0   186    0.147410D-01    0.997119D+00   -0.384900D+01    0.857025D-02
   0   187    0.143747D-01    0.996637D+00   -0.710745D+01    0.102021D-01
   0   188    0.144683D-01    0.997224D+00   -0.266694D+01    0.765512D-02
   0   189    0.143357D-01    0.997835D+00   -0.142678D+01    0.568176D-02
   0   190    0.147768D-01    0.997880D+00    0.271273D+00    0.616732D-02
   0   191    0.145732D-01    0.998293D+00   -0.375707D+01    0.554646D-02
   0   192    0.148259D-01    0.998094D+00    0.722442D+01    0.475549D-02
   0   193    0.146710D-01    0.998434D+00   -0.725121D+01    0.443274D-02
   0   194    0.147048D-01    0.998834D+00    0.432064D+01    0.329883D-02
   0   195    0.143034D-01    0.999065D+00    0.119506D+01    0.266986D-02
   0   196    0.145925D-01    0.999034D+00   -0.151909D+01    0.301406D-02
   0   197    0.144698D-01    0.999062D+00    0.805729D+00    0.302804D-02
   0   198    0.145812D-01    0.999514D+00   -0.503555D+01    0.164667D-02
   0   199    0.145878D-01    0.999783D+00    0.805484D+01    0.101953D-02
   0   200    0.143309D-01    0.998189D+00    0.862891D+01    0.473184D-02
   0   201    0.143107D-01    0.997701D+00    0.689122D+01    0.620250D-02
   0   202    0.144002D-01    0.997087D+00    0.733128D+01    0.775411D-02
   0   203    0.143385D-01    0.997731D+00    0.689456D+01    0.595572D-02
   0   204    0.145492D-01    0.997718D+00    0.360746D+01    0.711629D-02
   0   205    0.142390D-01    0.998013D+00   -0.318977D+01    0.501871D-02
   0   206    0.145158D-01    0.997108D+00    0.644968D+00    0.756756D-02
   0   207    0.144325D-01    0.997352D+00    0.786185D+01    0.815689D-02
   0   208    0.142828D-01    0.997641D+00    0.538383D+00    0.719583D-02
   0   209    0.146574D-01    0.997360D+00   -0.236982D+01    0.755486D-02
   0   210    0.144309D-01    0.998774D+00   -0.579982D+01    0.382306D-02
   0   211    0.146930D-01    0.997802D+00   -0.149811D+01    0.630134D-02
   0   212    0.144158D-01    0.998565D+00   -0.466521D+01    0.490175D-02
   0   213    0.144788D-01    0.998900D+00   -0.320604D+01    0.346467D-02
   0   214    0.145754D-01    0.999851D+00    0.204691D+01   -0.857188D-04
   0   215    0.141358D-01    0.999412D+00   -0.495795D+01    0.197688D-02
   0   216    0.142639D-01    0.998633D+00   -0.293335D+00    0.350190D-02
   0   217    0.139604D-01    0.997543D+00   -0.315156D+01    0.679568D-02
   0   218    0.138400D-01    0.997630D+00    0.505127D+01    0.689662D-02
   0   219    0.136619D-01    0.998098D+00   -0.371172D+01    0.510337D-02
   0   220    0.137896D-01    0.997604D+00    0.785654D+01    0.683052D-02
   0   221    0.139192D-01    0.998322D+00   -0.265528D+01    0.480803D-02
   0   222    0.137044D-01    0.999440D+00    0.383839D+00    0.235342D-02
   0   223    0.140330D-01    0.100043D+01    0.479197D+00   -0.118767D-02
   0   224    0.142059D-01    0.999605D+00    0.318355D+01    0.926276D-03
   0   225    0.140735D-01    0.997947D+00    0.524196D+01    0.572578D-02
   0   226    0.141776D-01    0.998705D+00    0.728550D+01    0.397395D-02
   0   227    0.136192D-01    0.999437D+00    0.761708D+01    0.115441D-02
   0   228    0.137146D-01    0.998524D+00    0.571104D+01    0.453554D-02
   0   229    0.136744D-01    0.998353D+00   -0.284682D+01    0.510938D-02
   0   230    0.141649D-01    0.999216D+00    0.401809D+01    0.212681D-02
   0   231    0.146062D-01    0.100011D+01   -0.659321D+01   -0.732093D-03
   0   232    0.144556D-01    0.999704D+00    0.394898D+01    0.595336D-03
   0   233    0.143306D-01    0.998626D+00   -0.167763D+01    0.424680D-02
   0   234    0.141407D-01    0.997927D+00   -0.347500D+01    0.623222D-02
   0   235    0.140113D-01    0.999156D+00   -0.153706D+01    0.300602D-02
   0   236    0.146503D-01    0.998264D+00   -0.571710D+00    0.467075D-02
   0   237    0.144241D-01    0.998153D+00   -0.252049D+01    0.456641D-02
   0   238    0.140635D-01    0.998741D+00   -0.481383D+01    0.318497D-02
   0   239    0.142162D-01    0.999234D+00    0.639078D+01    0.244615D-02
   0   240    0.145853D-01    0.998421D+00    0.697975D+01    0.453974D-02
   0   241    0.144857D-01    0.998402D+00   -0.278485D+01    0.404998D-02
   0   242    0.144731D-01    0.997458D+00    0.728951D+01    0.741906D-02
   0   243    0.144605D-01    0.996884D+00   -0.422750D+01    0.880579D-02
   0   244    0.145230D-01    0.997610D+00   -0.245833D+01    0.711081D-02
   0   245    0.147364D-01    0.996923D+00    0.253969D+00    0.960323D-02
   0   246    0.147512D-01    0.996916D+00    0.347793D-01    0.893433D-02
   0   247    0.145798D-01    0.996583D+00   -0.455121D+01    0.997869D-02
   0   248    0.149320D-01    0.996229D+00    0.129879D+01    0.104805D-01
   0   249    0.144854D-01    0.997389D+00   -0.189105D+01    0.686731D-02
   0   250    0.144230D-01    0.997859D+00   -0.787791D+00    0.664594D-02
   0   251    0.147033D-01    0.998304D+00    0.582862D+01    0.429855D-02
   0   252    0.148388D-01    0.999024D+00    0.309484D+01    0.295534D-02
   0   253    0.151505D-01    0.998166D+00   -0.507698D+01    0.506046D-02
   0   254    0.145649D-01    0.998148D+00   -0.773491D+01    0.592283D-02
   0   255    0.145288D-01    0.997315D+00    0.812166D+01    0.780904D-02
   0   256    0.146133D-01    0.997057D+00   -0.756820D+01    0.853313D-02
   0   257    0.146390D-01    0.997255D+00    0.488203D+01    0.736887D-02
   0   258    0.138210D-01    0.997369D+00    0.504754D+00    0.777727D-02
   0   259    0.141421D-01    0.997438D+00   -0.642544D+01    0.747306D-02
   0   260    0.140606D-01    0.998190D+00    0.204689D+01    0.491213D-02
   0   261    0.144826D-01    0.996808D+00   -0.701673D+01    0.926078D-02
   0   262    0.145553D-01    0.995834D+00   -0.761960D+01    0.112919D-01
   0   263    0.148195D-01    0.995320D+00   -0.151592D+00    0.138876D-01
   0   264    0.155696D-01    0.994849D+00   -0.264651D+01    0.146072D-01
   0   265    0.163139D-01    0.991103D+00   -0.764720D+01    0.259772D-01
   0   266    0.167143D-01    0.987276D+00    0.503083D+01    0.363856D-01
   0   267    0.188267D-01    0.981234D+00   -0.387118D+01    0.529385D-01
   0   268    0.213008D-01    0.971274D+00    0.210710D+01    0.799340D-01
   0   269    0.241103D-01    0.958091D+00   -0.563012D+01    0.114728D+00
   0   270    0.273062D-01    0.934083D+00   -0.302188D+01    0.167535D+00
   0   271    0.273765D-01    0.894739D+00    0.842076D+01    0.232739D+00
   0   272    0.229722D-01    0.836486D+00    0.101213D+02    0.292993D+00
   0   273    0.153567D-01    0.754911D+00    0.678072D-01    0.339178D+00
   0   274    0.830544D-02    0.654488D+00   -0.661428D+00    0.369421D+00
   0   275    0.387584D-02    0.544811D+00    0.121258D+01    0.388124D+00
   0   276    0.156606D-02    0.437863D+00    0.161271D+01    0.399611D+00
   0   277    0.597745D-03    0.341248D+00    0.345676D+00    0.406871D+00
   0   278    0.208423D-03    0.259066D+00    0.153015D+00    0.411587D+00
   0   279    0.729843D-04    0.192286D+00    0.271889D-01    0.414725D+00
   0   280    0.243142D-04    0.139930D+00    0.173777D-01    0.416849D+00
   0   281    0.749483D-05    0.100082D+00    0.917210D-02    0.418302D+00
   0   282    0.237158D-05    0.705011D-01    0.199354D-02    0.419301D+00
   0   283    0.753360D-06    0.490051D-01    0.398368D-03    0.419989D+00
   0   284    0.224790D-06    0.336675D-01    0.168224D-03    0.420461D+00
   0   285    0.677388D-07    0.228954D-01    0.488972D-04    0.420784D+00
   0   286    0.198785D-07    0.154320D-01    0.823500D-05    0.421003D+00
   0   287    0.572571D-08    0.103211D-01    0.371495D-05    0.421152D+00
   0   288    0.168467D-08    0.685651D-02    0.196130D-06    0.421252D+00
   0   289    0.470627D-09    0.452825D-02    0.555222D-06    0.421318D+00
   0   290    0.144315D-09    0.297535D-02    0.183291D-06    0.421363D+00
   0   291    0.435337D-10    0.194632D-02    0.158900D-07    0.421392D+00
   0   292    0.135134D-10    0.126824D-02    0.608567D-08    0.421411D+00
   0   293    0.414526D-11    0.823601D-03    0.486135D-08    0.421424D+00
   0   294    0.119765D-11    0.533263D-03    0.102795D-08    0.421432D+00
   0   295    0.346455D-12    0.344378D-03    0.407264D-09    0.421437D+00
   0   296    0.987557D-13    0.221888D-03    0.105950D-09    0.421441D+00
   0   297    0.292277D-13    0.142678D-03    0.206832D-10    0.421443D+00
   0   298    0.828292D-14    0.915820D-04    0.567079D-11    0.421444D+00
   0   299    0.232487D-14    0.586922D-04    0.832805D-12    0.421445D+00
   0   300    0.643318D-15    0.375618D-04    0.803879D-12    0.421446D+00
   0   301    0.177990D-15    0.240092D-04    0.215336D-12    0.421446D+00
   0   302    0.474977D-16    0.153297D-04    0.256877D-13    0.421447D+00
   0   303    0.126795D-16    0.977835D-05    0.159492D-13    0.421447D+00
   0   304    0.345988D-17    0.623193D-05    0.343801D-14    0.421447D+00
   0   305    0.914107D-18    0.396866D-05    0.109233D-14    0.421447D+00
   0   306    0.239667D-18    0.252560D-05    0.324831D-15    0.421447D+00
   0   307    0.630693D-19    0.160627D-05    0.621927D-16    0.421447D+00
   0   308    0.164146D-19    0.102102D-05    0.132171D-16    0.421447D+00
   0   309    0.420483D-20    0.648683D-06    0.130283D-17    0.421447D+00
   0   310    0.108898D-20    0.411946D-06    0.103948D-17    0.421447D+00
   0   311    0.276447D-21    0.261503D-06    0.110802D-18    0.421447D+00
   0   312    0.701251D-22    0.165943D-06    0.304524D-19    0.421447D+00
   0   313    0.177485D-22    0.105269D-06    0.212132D-19    0.421447D+00
   0   314    0.451225D-23    0.667609D-07    0.374098D-20    0.421447D+00
   0   315    0.112965D-23    0.423284D-07    0.340715D-21    0.421447D+00
   0   316    0.282170D-24    0.268313D-07    0.152091D-21    0.421447D+00
   0   317    0.709632D-25    0.170045D-07    0.851144D-22    0.421447D+00
   0   318    0.178292D-25    0.107748D-07    0.155473D-22    0.421447D+00
   0   319    0.442972D-26    0.682624D-08    0.231215D-23    0.421447D+00
   0   320    0.114823D-26    0.432407D-08    0.622792D-24    0.421447D+00
   0   321    0.281651D-27    0.273873D-08    0.339739D-24    0.421447D+00
   0   322    0.671978D-28    0.173443D-08    0.337378D-25    0.421447D+00
   0   323    0.164528D-28    0.109830D-08    0.152634D-25    0.421447D+00
   0   324    0.412223D-29    0.695426D-09    0.169807D-26    0.421447D+00
   0   325    0.999472D-30    0.440298D-09    0.498147D-27    0.421447D+00
   0   326    0.245985D-30    0.278750D-09    0.110512D-27    0.421447D+00
   0   327    0.594613D-31    0.176466D-09    0.424058D-28    0.421447D+00
   0   328    0.143142D-31    0.111709D-09    0.842681D-29    0.421447D+00
   0   329    0.347514D-32    0.707125D-10    0.393490D-29    0.421447D+00
   0   330    0.831598D-33    0.447603D-10    0.480334D-30    0.421447D+00
   0   331    0.207680D-33    0.283322D-10    0.793698D-31    0.421447D+00
   0   332    0.504832D-34    0.179333D-10    0.156240D-31    0.421447D+00
   0   333    0.124069D-34    0.113510D-10    0.438782D-32    0.421447D+00
   0   334    0.291643D-35    0.718469D-11    0.345842D-32    0.421447D+00
   0   335    0.711052D-36    0.454759D-11    0.338932D-33    0.421447D+00
   0   336    0.168491D-36    0.287843D-11    0.119883D-33    0.421447D+00
   0   337    0.398051D-37    0.182194D-11    0.405728D-34    0.421447D+00
   0   338    0.965257D-38    0.115323D-11    0.797632D-35    0.421447D+00
   0   339    0.229843D-38    0.729974D-12    0.147685D-35    0.421447D+00
   0   340    0.553787D-39    0.462067D-12    0.188475D-36    0.421447D+00
   0   341    0.132271D-39    0.292490D-12    0.454351D-37    0.421447D+00
   0   342    0.320126D-40    0.185152D-12    0.313223D-37    0.421447D+00
   0   343    0.777103D-41    0.117207D-12    0.570871D-38    0.421447D+00
   0   344    0.189092D-41    0.741982D-13    0.240797D-38    0.421447D+00
   0   345    0.451285D-42    0.469726D-13    0.143286D-39    0.421447D+00
   0   346    0.109554D-42    0.297377D-13    0.957942D-40    0.421447D+00
   0   347    0.264531D-43    0.188271D-13    0.118770D-40    0.421447D+00
   0   348    0.617166D-44    0.119199D-13    0.212414D-41    0.421447D+00
   0   349    0.146184D-44    0.754704D-14    0.859765D-42    0.421447D+00
   0   350    0.343993D-45    0.477852D-14    0.136664D-42    0.421447D+00
   0   351    0.836819D-46    0.302568D-14    0.532112D-43    0.421447D+00
   0   352    0.197279D-46    0.191587D-14    0.198103D-43    0.421447D+00
   0   353    0.478159D-47    0.121317D-14    0.134848D-44    0.421447D+00
   0   354    0.115198D-47    0.768232D-15    0.922824D-45    0.421447D+00
   0   355    0.273540D-48    0.486491D-15    0.954860D-46    0.421447D+00
   0   356    0.655064D-49    0.308084D-15    0.407197D-46    0.421447D+00
   0   357    0.155139D-49    0.195108D-15    0.164537D-46    0.421447D+00
   0   358    0.369876D-50    0.123564D-15    0.508865D-47    0.421447D+00
   0   359    0.853040D-51    0.782568D-16    0.830055D-48    0.421447D+00
   0   360    0.204651D-51    0.495635D-16    0.197390D-48    0.421447D+00
   0   361    0.479597D-52    0.313914D-16    0.141294D-49    0.421447D+00
   0   362    0.113092D-52    0.198824D-16    0.808422D-50    0.421447D+00
   0   363    0.270790D-53    0.125932D-16    0.316731D-50    0.421447D+00
   0   364    0.642674D-54    0.797649D-17    0.543171D-51    0.421447D+00
   0   365    0.149973D-54    0.505236D-17    0.798950D-52    0.421447D+00
   0   366    0.352630D-55    0.320025D-17    0.463445D-52    0.421447D+00
   0   367    0.858372D-56    0.202712D-17    0.108906D-52    0.421447D+00
   0   368    0.198681D-56    0.128405D-17    0.164963D-53    0.421447D+00
   0   369    0.491561D-57    0.813368D-18    0.258296D-54    0.421447D+00
   0   370    0.110176D-57    0.515226D-18    0.150997D-54    0.421447D+00
   0   371    0.261438D-58    0.326371D-18    0.229401D-55    0.421447D+00
   0   372    0.631685D-59    0.206742D-18    0.194242D-56    0.421447D+00
   0   373    0.147425D-59    0.130963D-18    0.200565D-56    0.421447D+00
   0   374    0.359800D-60    0.829603D-19    0.391799D-57    0.421447D+00
   0   375    0.856298D-61    0.525525D-19    0.437080D-58    0.421447D+00
   0   376    0.204429D-61    0.332903D-19    0.212490D-58    0.421447D+00
   0   377    0.470808D-62    0.210883D-19    0.274840D-59    0.421447D+00
   0   378    0.112797D-62    0.133587D-19    0.282631D-60    0.421447D+00
   0   379    0.265115D-63    0.846230D-20    0.108698D-60    0.421447D+00
   0   380    0.625171D-64    0.536056D-20    0.259228D-61    0.421447D+00
   0   381    0.147360D-64    0.339571D-20    0.196336D-61    0.421447D+00
   0   382    0.344016D-65    0.215104D-20    0.369540D-62    0.421447D+00
   0   383    0.820622D-66    0.136259D-20    0.117725D-62    0.421447D+00
   0   384    0.195143D-66    0.863134D-21    0.221254D-63    0.421447D+00
   0   385    0.462945D-67    0.546749D-21    0.620135D-64    0.421447D+00
   0   386    0.109681D-67    0.346334D-21    0.154085D-64    0.421447D+00
   0   387    0.256214D-68    0.219380D-21    0.220516D-65    0.421447D+00
   0   388    0.608594D-69    0.138961D-21    0.500354D-66    0.421447D+00
   0   389    0.145473D-69    0.880189D-22    0.184917D-66    0.421447D+00
   0   390    0.344602D-70    0.557493D-22    0.419091D-67    0.421447D+00
   0   391    0.824544D-71    0.353067D-22    0.535302D-68    0.421447D+00
   0   392    0.189942D-71    0.223545D-22    0.672051D-69    0.421447D+00
   0   393    0.449076D-72    0.141452D-22    0.500045D-69    0.421447D+00
   0   394    0.105093D-72    0.893707D-23    0.132579D-69    0.421447D+00
   0   395    0.239185D-73    0.562527D-23    0.103139D-70    0.421447D+00
   0   396    0.561459D-74    0.350711D-23    0.295532D-71    0.421447D+00
   0   397    0.132028D-74    0.213316D-23    0.121821D-71    0.421447D+00