variables =  "IG"  "JG"  "PHI"  "Temp."  "Latent_heat"  "mm"
ZONE  I=  401  J=  101
   0     0    0.100000D+01    0.916208D+00    0.000000D+00    0.199804D+00
   0     1    0.100000D+01    0.916208D+00    0.000000D+00    0.199804D+00
   0     2    0.100000D+01    0.916372D+00    0.000000D+00    0.199528D+00
   0     3    0.100000D+01    0.916699D+00    0.000000D+00    0.198975D+00
   0     4    0.100000D+01    0.917190D+00    0.000000D+00    0.198144D+00
   0     5    0.100000D+01    0.917842D+00    0.000000D+00    0.197032D+00
   0     6    0.100000D+01    0.918654D+00    0.000000D+00    0.195638D+00
   0     7    0.100000D+01    0.919624D+00    0.000000D+00    0.193957D+00
   0     8    0.100000D+01    0.920750D+00    0.000000D+00    0.191986D+00
   0     9    0.100000D+01    0.922030D+00    0.000000D+00    0.189721D+00
   0    10    0.100000D+01    0.923460D+00    0.000000D+00    0.187155D+00
   0    11    0.100000D+01    0.925038D+00    0.000000D+00    0.184283D+00
   0    12    0.100000D+01    0.926759D+00    0.000000D+00    0.181100D+00
   0    13    0.100000D+01    0.928621D+00    0.000000D+00    0.177597D+00
   0    14    0.100000D+01    0.930619D+00    0.000000D+00    0.173768D+00
   0    15    0.100000D+01    0.932750D+00    0.000000D+00    0.169606D+00
   0    16    0.100000D+01    0.935010D+00    0.000000D+00    0.165101D+00
   0    17    0.100000D+01    0.937395D+00    0.000000D+00    0.160245D+00
   0    18    0.100000D+01    0.939902D+00    0.000000D+00    0.155028D+00
   0    19    0.100000D+01    0.942526D+00    0.000000D+00    0.149441D+00
   0    20    0.100000D+01    0.945264D+00    0.000000D+00    0.143474D+00
   0    21    0.100000D+01    0.948115D+00    0.000000D+00    0.137115D+00
   0    22    0.100000D+01    0.951076D+00    0.000000D+00    0.130351D+00
   0    23    0.100000D+01    0.954145D+00   -0.266454D-10    0.123170D+00
   0    24    0.100000D+01    0.957323D+00    0.932587D-10    0.115557D+00
   0    25    0.100000D+01    0.960611D+00    0.327738D-08    0.107496D+00
   0    26    0.100000D+01    0.964010D+00    0.260991D-07    0.989687D-01
   0    27    0.100000D+01    0.967526D+00    0.122569D-08    0.899553D-01
   0    28    0.100000D+01    0.971162D+00    0.103309D-05    0.804327D-01
   0    29    0.100000D+01    0.974928D+00    0.486725D-05    0.703740D-01
   0    30    0.100000D+01    0.978836D+00   -0.424612D-05    0.597467D-01
   0    31    0.999999D+00    0.982902D+00    0.354797D-03    0.485112D-01
   0    32    0.999996D+00    0.987147D+00    0.204338D-02    0.366165D-01
   0    33    0.999976D+00    0.991606D+00    0.112754D-01    0.239879D-01
   0    34    0.999844D+00    0.996335D+00   -0.526308D-01    0.104903D-01
   0    35    0.999026D+00    0.100145D+01    0.234384D+00   -0.414709D-02
   0    36    0.994137D+00    0.100701D+01   -0.920263D+00   -0.201067D-01
   0    37    0.965052D+00    0.101327D+01   -0.130929D+02   -0.381331D-01
   0    38    0.804182D+00    0.101962D+01   -0.112171D+02   -0.566096D-01
   0    39    0.272756D+00    0.102723D+01    0.107311D+03   -0.804184D-01
   0    40    0.634736D-01    0.102448D+01    0.252725D+02   -0.680594D-01
   0    41    0.190585D-01    0.102107D+01   -0.308867D+01   -0.588805D-01
   0    42    0.966397D-02    0.101660D+01   -0.203669D+01   -0.468601D-01
   0    43    0.838460D-02    0.101290D+01   -0.182798D+01   -0.362513D-01
   0    44    0.887171D-02    0.101088D+01   -0.478061D+00   -0.311810D-01
   0    45    0.976431D-02    0.100891D+01    0.495793D+01   -0.258572D-01
   0    46    0.104672D-01    0.100820D+01   -0.374512D+01   -0.237369D-01
   0    47    0.107881D-01    0.100606D+01    0.868240D+00   -0.174885D-01
   0    48    0.115834D-01    0.100419D+01    0.249031D+01   -0.121192D-01
   0    49    0.113517D-01    0.100372D+01   -0.249854D+01   -0.104737D-01
   0    50    0.115290D-01    0.100260D+01   -0.722396D+00   -0.795744D-02
   0    51    0.116442D-01    0.100289D+01    0.464499D+01   -0.880929D-02
   0    52    0.117669D-01    0.100165D+01    0.563379D+01   -0.470158D-02
   0    53    0.122746D-01    0.100144D+01    0.408826D+01   -0.375913D-02
   0    54    0.125427D-01    0.100196D+01    0.273683D+00   -0.548126D-02
   0    55    0.123924D-01    0.100230D+01    0.467917D+01   -0.666307D-02
   0    56    0.125358D-01    0.100178D+01    0.103410D+01   -0.476426D-02
   0    57    0.129933D-01    0.100116D+01    0.184348D+01   -0.322897D-02
   0    58    0.130553D-01    0.100121D+01    0.197802D+01   -0.338889D-02
   0    59    0.130445D-01    0.100084D+01    0.532976D+01   -0.255451D-02
   0    60    0.134348D-01    0.100009D+01    0.206463D+01    0.272124D-03
   0    61    0.135307D-01    0.999388D+00    0.974563D+00    0.225260D-02
   0    62    0.138168D-01    0.999204D+00    0.310671D+01    0.289471D-02
   0    63    0.140975D-01    0.100095D+01   -0.768311D+01   -0.276225D-02
   0    64    0.133879D-01    0.999938D+00    0.278481D+01    0.333295D-03
   0    65    0.138753D-01    0.999214D+00    0.712687D+01    0.211543D-02
   0    66    0.137992D-01    0.998302D+00   -0.658488D+01    0.493497D-02
   0    67    0.143718D-01    0.998159D+00   -0.348473D-01    0.553184D-02
   0    68    0.142338D-01    0.997449D+00    0.562854D+01    0.734441D-02
   0    69    0.144323D-01    0.998177D+00   -0.309478D+00    0.473271D-02
   0    70    0.145640D-01    0.998019D+00    0.633710D+01    0.615374D-02
   0    71    0.144206D-01    0.998520D+00    0.636678D+01    0.453819D-02
   0    72    0.147839D-01    0.997240D+00    0.719534D+01    0.858992D-02
   0    73    0.145823D-01    0.997454D+00   -0.547049D+01    0.752679D-02
   0    74    0.146762D-01    0.997275D+00   -0.789736D+00    0.794713D-02
   0    75    0.150874D-01    0.996233D+00   -0.288636D+01    0.105442D-01
   0    76    0.147790D-01    0.996590D+00   -0.604380D+01    0.939632D-02
   0    77    0.148143D-01    0.995558D+00   -0.119133D+01    0.121348D-01
   0    78    0.147949D-01    0.996009D+00   -0.785237D+01    0.117650D-01
   0    79    0.146857D-01    0.997751D+00   -0.733070D+01    0.616796D-02
   0    80    0.153929D-01    0.998530D+00   -0.399951D+01    0.411761D-02
   0    81    0.150682D-01    0.997633D+00   -0.546156D+01    0.737529D-02
   0    82    0.151534D-01    0.997025D+00   -0.363683D+01    0.816485D-02
   0    83    0.149518D-01    0.997481D+00   -0.354679D+01    0.753899D-02
   0    84    0.153426D-01    0.997302D+00   -0.101338D+00    0.785862D-02
   0    85    0.153593D-01    0.997485D+00    0.484789D+01    0.680328D-02
   0    86    0.150069D-01    0.996820D+00   -0.757729D+01    0.926849D-02
   0    87    0.154168D-01    0.997164D+00    0.596235D+01    0.785925D-02
   0    88    0.156071D-01    0.996794D+00   -0.715030D+00    0.876843D-02
   0    89    0.155817D-01    0.996642D+00   -0.216800D+01    0.917499D-02
   0    90    0.153514D-01    0.996519D+00    0.115204D+01    0.929956D-02
   0    91    0.148115D-01    0.997173D+00    0.678380D+01    0.801570D-02
   0    92    0.149704D-01    0.996133D+00   -0.738814D+01    0.104916D-01
   0    93    0.152395D-01    0.997250D+00   -0.261581D+01    0.775455D-02
   0    94    0.153430D-01    0.997357D+00    0.180881D+01    0.729735D-02
   0    95    0.154297D-01    0.996583D+00   -0.826154D+01    0.968112D-02
   0    96    0.152946D-01    0.997167D+00   -0.114577D+01    0.881225D-02
   0    97    0.151771D-01    0.996613D+00   -0.872667D+01    0.103718D-01
   0    98    0.151448D-01    0.995966D+00   -0.176858D+01    0.119423D-01
   0    99    0.152848D-01    0.995146D+00   -0.310369D+01    0.140199D-01
   0   100    0.154889D-01    0.996044D+00    0.695600D+00    0.120873D-01
   0   101    0.153211D-01    0.995564D+00    0.469221D+01    0.124252D-01
   0   102    0.151540D-01    0.996687D+00    0.960068D+01    0.867465D-02
   0   103    0.153423D-01    0.997153D+00   -0.512485D+01    0.778130D-02
   0   104    0.149398D-01    0.996225D+00   -0.331615D+01    0.112620D-01
   0   105    0.155106D-01    0.995312D+00   -0.654950D+01    0.130837D-01
   0   106    0.151570D-01    0.996146D+00    0.369527D+01    0.104187D-01
   0   107    0.152246D-01    0.997867D+00   -0.120835D+00    0.548407D-02
   0   108    0.153609D-01    0.996843D+00   -0.327223D+00    0.954802D-02
   0   109    0.151151D-01    0.996923D+00    0.270248D+01    0.927545D-02
   0   110    0.153951D-01    0.996158D+00    0.464938D+01    0.115632D-01
   0   111    0.154779D-01    0.995664D+00   -0.608225D+01    0.131084D-01
   0   112    0.159248D-01    0.995951D+00   -0.564785D+01    0.119131D-01
   0   113    0.156122D-01    0.995794D+00   -0.633095D+00    0.117165D-01
   0   114    0.153311D-01    0.995865D+00   -0.746288D+01    0.124406D-01
   0   115    0.158247D-01    0.995328D+00    0.561368D+01    0.126721D-01
   0   116    0.155562D-01    0.995491D+00   -0.508118D+01    0.134398D-01
   0   117    0.150041D-01    0.996003D+00    0.359091D+01    0.119842D-01
   0   118    0.150915D-01    0.995422D+00   -0.316582D+01    0.123215D-01
   0   119    0.154530D-01    0.995815D+00    0.174108D+01    0.114242D-01
   0   120    0.153135D-01    0.996172D+00   -0.457801D+01    0.111312D-01
   0   121    0.152645D-01    0.995505D+00    0.474571D+01    0.125040D-01
   0   122    0.151229D-01    0.995757D+00   -0.515093D+01    0.114964D-01
   0   123    0.153359D-01    0.996804D+00   -0.228625D+01    0.843304D-02
   0   124    0.153710D-01    0.996100D+00   -0.350491D+01    0.110513D-01
   0   125    0.154810D-01    0.995243D+00    0.419466D+01    0.137652D-01
   0   126    0.153955D-01    0.997450D+00   -0.566434D+01    0.782609D-02
   0   127    0.153202D-01    0.998072D+00    0.711284D+01    0.600313D-02
   0   128    0.148418D-01    0.997272D+00   -0.611966D+01    0.811921D-02
   0   129    0.154141D-01    0.997435D+00   -0.957314D+01    0.665783D-02
   0   130    0.152688D-01    0.995910D+00    0.395433D+01    0.114776D-01
   0   131    0.150274D-01    0.994867D+00    0.387979D+01    0.141348D-01
   0   132    0.151817D-01    0.995696D+00   -0.212276D+01    0.123864D-01
   0   133    0.153599D-01    0.995818D+00   -0.560144D+01    0.118729D-01
   0   134    0.154256D-01    0.996746D+00   -0.487781D+00    0.914987D-02
   0   135    0.151558D-01    0.996447D+00   -0.619258D+01    0.106718D-01
   0   136    0.153552D-01    0.995690D+00   -0.592982D+01    0.129624D-01
   0   137    0.149294D-01    0.995618D+00    0.377619D+01    0.121524D-01
   0   138    0.144315D-01    0.995606D+00    0.558940D+01    0.121387D-01
   0   139    0.151939D-01    0.996966D+00   -0.312563D+01    0.920398D-02
   0   140    0.150905D-01    0.997081D+00   -0.890979D+01    0.894880D-02
   0   141    0.152729D-01    0.996964D+00    0.574629D+00    0.863628D-02
   0   142    0.150507D-01    0.997093D+00    0.192588D+01    0.902376D-02
   0   143    0.148469D-01    0.996532D+00    0.557731D-01    0.963064D-02
   0   144    0.148433D-01    0.996173D+00   -0.596849D+01    0.108967D-01
   0   145    0.152861D-01    0.996830D+00    0.800753D+01    0.879925D-02
   0   146    0.152399D-01    0.996594D+00   -0.381863D+01    0.104479D-01
   0   147    0.154013D-01    0.996772D+00    0.497959D+01    0.877393D-02
   0   148    0.151150D-01    0.997238D+00   -0.326434D+00    0.767860D-02
   0   149    0.154143D-01    0.998119D+00    0.628235D+00    0.533742D-02
   0   150    0.149179D-01    0.997752D+00   -0.179572D+01    0.622962D-02
   0   151    0.150281D-01    0.997998D+00    0.720889D+01    0.567779D-02
   0   152    0.149278D-01    0.996899D+00    0.773780D+01    0.943097D-02
   0   153    0.148655D-01    0.995938D+00    0.935541D+01    0.112683D-01
   0   154    0.148755D-01    0.996500D+00   -0.542741D+00    0.103435D-01
   0   155    0.146129D-01    0.995803D+00   -0.358594D+01    0.121717D-01
   0   156    0.154557D-01    0.995599D+00   -0.752590D+01    0.119644D-01
   0   157    0.153484D-01    0.997354D+00    0.127208D+01    0.778593D-02
   0   158    0.152280D-01    0.998613D+00   -0.745568D+01    0.458318D-02
   0   159    0.149882D-01    0.997666D+00    0.681473D+01    0.674628D-02
   0   160    0.152418D-01    0.997543D+00    0.884540D+01    0.703490D-02
   0   161    0.156515D-01    0.997985D+00    0.725239D+01    0.487431D-02
   0   162    0.150572D-01    0.997324D+00   -0.171033D+01    0.796922D-02
   0   163    0.147854D-01    0.996653D+00    0.788826D+00    0.995978D-02
   0   164    0.150272D-01    0.996516D+00   -0.185639D+01    0.103269D-01
   0   165    0.146629D-01    0.997332D+00   -0.479295D+01    0.788302D-02
   0   166    0.146829D-01    0.998324D+00   -0.600719D+01    0.541804D-02
   0   167    0.146489D-01    0.997295D+00   -0.733830D+01    0.768140D-02
   0   168    0.148883D-01    0.997352D+00   -0.460443D+01    0.743391D-02
   0   169    0.151308D-01    0.997799D+00   -0.241176D+01    0.593416D-02
   0   170    0.150454D-01    0.996553D+00   -0.933583D+01    0.924083D-02
   0   171    0.148887D-01    0.997375D+00    0.898839D+01    0.766896D-02
   0   172    0.149820D-01    0.995933D+00   -0.343825D+01    0.118805D-01
   0   173    0.144402D-01    0.996577D+00    0.679438D+01    0.105185D-01
   0   174    0.147573D-01    0.997538D+00    0.152173D+01    0.652129D-02
   0   175    0.146284D-01    0.997610D+00   -0.611891D+01    0.625060D-02
   0   176    0.146549D-01    0.997050D+00    0.695211D+01    0.831276D-02
   0   177    0.148240D-01    0.996208D+00    0.407916D+01    0.101293D-01
   0   178    0.144999D-01    0.996823D+00    0.604233D+01    0.938162D-02
   0   179    0.147508D-01    0.997342D+00   -0.876007D+01    0.775180D-02
   0   180    0.144475D-01    0.998290D+00    0.471052D+01    0.495043D-02
   0   181    0.146030D-01    0.997239D+00    0.320805D+01    0.780478D-02
   0   182    0.141733D-01    0.998650D+00   -0.410429D+01    0.433095D-02
   0   183    0.145423D-01    0.996640D+00   -0.110131D+01    0.949416D-02
   0   184    0.146126D-01    0.996776D+00   -0.510248D+01    0.925938D-02
   0   185    0.144291D-01    0.997266D+00   -0.796509D+01    0.775112D-02
   0   186    0.144339D-01    0.998011D+00   -0.136860D+01    0.609729D-02
   0   187    0.146156D-01    0.997530D+00   -0.590558D+01    0.773663D-02
   0   188    0.145476D-01    0.997851D+00   -0.756606D+01    0.671370D-02
   0   189    0.142827D-01    0.997860D+00   -0.693333D+01    0.570051D-02
   0   190    0.147460D-01    0.998660D+00   -0.680404D+01    0.421688D-02
   0   191    0.143103D-01    0.998638D+00    0.322253D+01    0.406104D-02
   0   192    0.147928D-01    0.997423D+00   -0.179849D+01    0.691488D-02
   0   193    0.146544D-01    0.996577D+00    0.899240D+00    0.103833D-01
   0   194    0.143387D-01    0.995703D+00    0.222677D+00    0.121437D-01
   0   195    0.142366D-01    0.997595D+00    0.725956D+01    0.705873D-02
   0   196    0.142045D-01    0.997884D+00    0.199343D+01    0.657994D-02
   0   197    0.147381D-01    0.996308D+00   -0.915059D+01    0.107841D-01
   0   198    0.144038D-01    0.996350D+00    0.342367D+01    0.994843D-02
   0   199    0.142035D-01    0.997348D+00   -0.714989D+01    0.750165D-02
   0   200    0.146134D-01    0.996659D+00   -0.357636D+01    0.890207D-02
   0   201    0.143122D-01    0.998398D+00    0.535136D+01    0.502352D-02
   0   202    0.141055D-01    0.999498D+00   -0.830874D+00    0.194160D-02
   0   203    0.142659D-01    0.998352D+00    0.264280D+01    0.443167D-02
   0   204    0.140723D-01    0.997529D+00    0.438008D+01    0.724119D-02
   0   205    0.142059D-01    0.998077D+00   -0.578448D+01    0.495173D-02
   0   206    0.142285D-01    0.997483D+00   -0.855292D+00    0.775649D-02
   0   207    0.139983D-01    0.998369D+00    0.737983D+00    0.494596D-02
   0   208    0.143430D-01    0.998086D+00   -0.470441D+01    0.521906D-02
   0   209    0.145324D-01    0.998546D+00    0.107644D+01    0.429467D-02
   0   210    0.140828D-01    0.998213D+00    0.752412D+00    0.493637D-02
   0   211    0.145196D-01    0.997793D+00    0.656220D+01    0.587778D-02
   0   212    0.144518D-01    0.998254D+00    0.355425D+01    0.546223D-02
   0   213    0.141699D-01    0.998143D+00   -0.431365D+01    0.531006D-02
   0   214    0.143578D-01    0.998980D+00    0.609256D+01    0.314855D-02
   0   215    0.141826D-01    0.100006D+01   -0.480738D+01   -0.824688D-03
   0   216    0.140559D-01    0.999474D+00    0.594017D+01    0.166035D-02
   0   217    0.141277D-01    0.999838D+00    0.844671D+01    0.968356D-03
   0   218    0.138576D-01    0.998668D+00    0.182221D+01    0.460631D-02
   0   219    0.137612D-01    0.998033D+00    0.537001D+01    0.531408D-02
   0   220    0.136820D-01    0.999190D+00   -0.213695D+01    0.226534D-02
   0   221    0.137419D-01    0.100058D+01   -0.461429D+01   -0.111493D-02
   0   222    0.139670D-01    0.100001D+01    0.481775D+01   -0.820733D-03
   0   223    0.137930D-01    0.998486D+00    0.325532D+01    0.411827D-02
   0   224    0.139627D-01    0.999201D+00    0.828971D+01    0.268068D-02
   0   225    0.140579D-01    0.999683D+00   -0.211768D+01    0.149237D-02
   0   226    0.136812D-01    0.100006D+01   -0.587441D+01   -0.398951D-03
   0   227    0.138067D-01    0.100001D+01   -0.531158D+01   -0.207144D-03
   0   228    0.140184D-01    0.999045D+00    0.310820D+01    0.211592D-02
   0   229    0.136824D-01    0.999198D+00    0.812036D+01    0.187559D-02
   0   230    0.141580D-01    0.100015D+01    0.475773D+01    0.102273D-03
   0   231    0.140899D-01    0.100004D+01   -0.624367D+01    0.213478D-03
   0   232    0.141897D-01    0.999696D+00    0.123607D+01    0.116264D-02
   0   233    0.141289D-01    0.999205D+00    0.234241D+01    0.270157D-02
   0   234    0.141888D-01    0.998067D+00    0.675350D+01    0.573055D-02
   0   235    0.141399D-01    0.996827D+00   -0.947799D+01    0.921522D-02
   0   236    0.139230D-01    0.997613D+00    0.529256D+01    0.619150D-02
   0   237    0.143821D-01    0.997515D+00   -0.972404D+00    0.656395D-02
   0   238    0.145659D-01    0.998872D+00    0.135496D+00    0.306079D-02
   0   239    0.146415D-01    0.999150D+00    0.381860D+01    0.261883D-02
   0   240    0.145231D-01    0.998428D+00   -0.692600D+01    0.479649D-02
   0   241    0.144268D-01    0.998098D+00   -0.194810D+01    0.514418D-02
   0   242    0.148696D-01    0.997237D+00   -0.215621D+01    0.738111D-02
   0   243    0.144516D-01    0.996561D+00    0.430925D+01    0.917399D-02
   0   244    0.147992D-01    0.996882D+00    0.160539D+01    0.918595D-02
   0   245    0.151724D-01    0.996431D+00   -0.262719D+01    0.108326D-01
   0   246    0.149303D-01    0.997503D+00   -0.720347D+01    0.679193D-02
   0   247    0.152290D-01    0.998286D+00   -0.763967D+01    0.557377D-02
   0   248    0.149388D-01    0.997350D+00   -0.161295D+01    0.754758D-02
   0   249    0.149879D-01    0.997389D+00   -0.436645D+01    0.802414D-02
   0   250    0.149454D-01    0.997161D+00   -0.862457D+01    0.807780D-02
   0   251    0.147776D-01    0.996575D+00   -0.533360D+01    0.973157D-02
   0   252    0.150600D-01    0.996626D+00    0.419290D+01    0.991626D-02
   0   253    0.153066D-01    0.996020D+00    0.277546D+01    0.119390D-01
   0   254    0.154604D-01    0.996344D+00   -0.423057D+01    0.951954D-02
   0   255    0.152005D-01    0.996364D+00   -0.552595D+01    0.991555D-02
   0   256    0.149987D-01    0.995538D+00    0.310024D+01    0.121838D-01
   0   257    0.148958D-01    0.995738D+00   -0.745488D+01    0.115054D-01
   0   258    0.147211D-01    0.994791D+00    0.550908D+01    0.145142D-01
   0   259    0.146996D-01    0.994302D+00    0.329047D+01    0.160415D-01
   0   260    0.156307D-01    0.992547D+00    0.487514D+01    0.211256D-01
   0   261    0.170215D-01    0.987707D+00   -0.117919D+01    0.344965D-01
   0   262    0.190181D-01    0.981110D+00    0.563248D+01    0.529569D-01
   0   263    0.213225D-01    0.971264D+00   -0.157934D+01    0.802734D-01
   0   264    0.234050D-01    0.955851D+00   -0.121717D+02    0.118715D+00
   0   265    0.272325D-01    0.930314D+00   -0.169820D+02    0.175179D+00
   0   266    0.273593D-01    0.892895D+00    0.712372D+01    0.235087D+00
   0   267    0.221221D-01    0.832187D+00    0.163561D+02    0.296312D+00
   0   268    0.147172D-01    0.749957D+00    0.125388D+02    0.341175D+00
   0   269    0.774030D-02    0.647458D+00   -0.822826D+00    0.370940D+00
   0   270    0.360262D-02    0.537668D+00    0.215503D+01    0.389051D+00
   0   271    0.144259D-02    0.431231D+00    0.165070D+01    0.400186D+00
   0   272    0.541769D-03    0.335638D+00    0.646348D+00    0.407229D+00
   0   273    0.190134D-03    0.254511D+00    0.226202D+00    0.411818D+00
   0   274    0.663238D-04    0.188705D+00    0.138628D-01    0.414879D+00
   0   275    0.216273D-04    0.137196D+00    0.863482D-02    0.416953D+00
   0   276    0.695643D-05    0.980538D-01    0.901460D-02    0.418373D+00
   0   277    0.218845D-05    0.690348D-01    0.173292D-02    0.419349D+00
   0   278    0.672366D-06    0.479683D-01    0.796788D-03    0.420021D+00
   0   279    0.205888D-06    0.329480D-01    0.131070D-03    0.420483D+00
   0   280    0.609207D-07    0.224034D-01    0.427931D-04    0.420798D+00
   0   281    0.184325D-07    0.150995D-01    0.877189D-05    0.421013D+00
   0   282    0.532857D-08    0.100984D-01    0.702660D-05    0.421158D+00
   0   283    0.155379D-08    0.670842D-02    0.151245D-05    0.421256D+00
   0   284    0.441287D-09    0.443030D-02    0.258457D-06    0.421321D+00
   0   285    0.132262D-09    0.291085D-02    0.164918D-06    0.421364D+00
   0   286    0.421988D-10    0.190399D-02    0.516670D-07    0.421393D+00
   0   287    0.126282D-10    0.124055D-02    0.100655D-07    0.421412D+00
   0   288    0.381683D-11    0.805533D-03    0.325414D-08    0.421424D+00
   0   289    0.118305D-11    0.521501D-03    0.628778D-09    0.421432D+00
   0   290    0.339370D-12    0.336737D-03    0.188137D-09    0.421437D+00
   0   291    0.974957D-13    0.216934D-03    0.951009D-10    0.421441D+00
   0   292    0.272186D-13    0.139471D-03    0.331173D-10    0.421443D+00
   0   293    0.784141D-14    0.895094D-04    0.532644D-11    0.421444D+00
   0   294    0.222859D-14    0.573546D-04    0.149550D-11    0.421445D+00
   0   295    0.606347D-15    0.366998D-04    0.803513D-12    0.421446D+00
   0   296    0.169797D-15    0.234543D-04    0.175874D-12    0.421446D+00
   0   297    0.454510D-16    0.149729D-04    0.616057D-13    0.421447D+00
   0   298    0.123187D-16    0.954925D-05    0.720559D-14    0.421447D+00
   0   299    0.333478D-17    0.608493D-05    0.639374D-15    0.421447D+00
   0   300    0.875650D-18    0.387444D-05    0.399054D-15    0.421447D+00
   0   301    0.232001D-18    0.246526D-05    0.196836D-15    0.421447D+00
   0   302    0.599747D-19    0.156766D-05    0.491915D-16    0.421447D+00
   0   303    0.151759D-19    0.996335D-06    0.136851D-16    0.421447D+00
   0   304    0.387090D-20    0.632918D-06    0.395076D-17    0.421447D+00
   0   305    0.100334D-20    0.401884D-06    0.128619D-17    0.421447D+00
   0   306    0.252060D-21    0.255086D-06    0.234936D-18    0.421447D+00
   0   307    0.641110D-22    0.161853D-06    0.733874D-19    0.421447D+00
   0   308    0.163758D-22    0.102666D-06    0.431078D-20    0.421447D+00
   0   309    0.411515D-23    0.651041D-07    0.278332D-20    0.421447D+00
   0   310    0.104056D-23    0.412750D-07    0.119396D-20    0.421447D+00
   0   311    0.265380D-24    0.261621D-07    0.181641D-21    0.421447D+00
   0   312    0.659163D-25    0.165796D-07    0.457820D-22    0.421447D+00
   0   313    0.168393D-25    0.105052D-07    0.971968D-23    0.421447D+00
   0   314    0.410832D-26    0.665529D-08    0.520665D-23    0.421447D+00
   0   315    0.101142D-26    0.421575D-08    0.995505D-24    0.421447D+00
   0   316    0.252701D-27    0.267013D-08    0.332247D-24    0.421447D+00
   0   317    0.636532D-28    0.169102D-08    0.300460D-25    0.421447D+00
   0   318    0.153666D-28    0.107084D-08    0.127578D-25    0.421447D+00
   0   319    0.376833D-29    0.678068D-09    0.280699D-26    0.421447D+00
   0   320    0.945508D-30    0.429332D-09    0.538197D-27    0.421447D+00
   0   321    0.225513D-30    0.271826D-09    0.329919D-27    0.421447D+00
   0   322    0.558192D-31    0.172096D-09    0.133380D-28    0.421447D+00
   0   323    0.135673D-31    0.108952D-09    0.378609D-29    0.421447D+00
   0   324    0.321807D-32    0.689744D-10    0.126908D-29    0.421447D+00
   0   325    0.786424D-33    0.436650D-10    0.912577D-30    0.421447D+00
   0   326    0.186889D-33    0.276423D-10    0.646292D-31    0.421447D+00
   0   327    0.460664D-34    0.174989D-10    0.265529D-31    0.421447D+00
   0   328    0.110613D-34    0.110777D-10    0.160518D-31    0.421447D+00
   0   329    0.268467D-35    0.701273D-11    0.823540D-33    0.421447D+00
   0   330    0.634481D-36    0.443945D-11    0.672786D-33    0.421447D+00
   0   331    0.155525D-36    0.281045D-11    0.542521D-34    0.421447D+00
   0   332    0.377664D-37    0.177922D-11    0.423702D-34    0.421447D+00
   0   333    0.906869D-38    0.112640D-11    0.359948D-35    0.421447D+00
   0   334    0.220336D-38    0.713119D-12    0.283122D-35    0.421447D+00
   0   335    0.536324D-39    0.451484D-12    0.306992D-36    0.421447D+00
   0   336    0.130832D-39    0.285847D-12    0.169438D-36    0.421447D+00
   0   337    0.309933D-40    0.180982D-12    0.380994D-37    0.421447D+00
   0   338    0.750617D-41    0.114590D-12    0.324311D-38    0.421447D+00
   0   339    0.180661D-41    0.725559D-13    0.952477D-39    0.421447D+00
   0   340    0.429945D-42    0.459420D-13    0.619259D-39    0.421447D+00
   0   341    0.101371D-42    0.290910D-13    0.965472D-40    0.421447D+00
   0   342    0.240724D-43    0.184213D-13    0.312923D-40    0.421447D+00
   0   343    0.572982D-44    0.116653D-13    0.688079D-41    0.421447D+00
   0   344    0.136831D-44    0.738719D-14    0.710872D-42    0.421447D+00
   0   345    0.323871D-45    0.467818D-14    0.243114D-42    0.421447D+00
   0   346    0.767514D-46    0.296268D-14    0.104097D-42    0.421447D+00
   0   347    0.183287D-46    0.187631D-14    0.101642D-43    0.421447D+00
   0   348    0.441825D-47    0.118832D-14    0.476813D-44    0.421447D+00
   0   349    0.103975D-47    0.752617D-15    0.840708D-45    0.421447D+00
   0   350    0.243327D-48    0.476676D-15    0.103185D-45    0.421447D+00
   0   351    0.584341D-49    0.301913D-15    0.817523D-46    0.421447D+00
   0   352    0.139896D-49    0.191227D-15    0.157725D-46    0.421447D+00
   0   353    0.329425D-50    0.121122D-15    0.343935D-47    0.421447D+00
   0   354    0.788034D-51    0.767195D-16    0.205812D-48    0.421447D+00
   0   355    0.183247D-51    0.485953D-16    0.198928D-48    0.421447D+00
   0   356    0.431354D-52    0.307815D-16    0.483609D-49    0.421447D+00
   0   357    0.102152D-52    0.194980D-16    0.916764D-50    0.421447D+00
   0   358    0.240594D-53    0.123508D-16    0.712628D-51    0.421447D+00
   0   359    0.566283D-54    0.782355D-17    0.592324D-51    0.421447D+00
   0   360    0.132527D-54    0.495583D-17    0.129388D-51    0.421447D+00
   0   361    0.325285D-55    0.313929D-17    0.360163D-52    0.421447D+00
   0   362    0.775982D-56    0.198861D-17    0.394793D-53    0.421447D+00
   0   363    0.184270D-56    0.125971D-17    0.235764D-53    0.421447D+00
   0   364    0.439637D-57    0.797977D-18    0.554526D-54    0.421447D+00
   0   365    0.108070D-57    0.505489D-18    0.473287D-55    0.421447D+00
   0   366    0.249619D-58    0.320209D-18    0.292156D-55    0.421447D+00
   0   367    0.588922D-59    0.202841D-18    0.271064D-56    0.421447D+00
   0   368    0.141685D-59    0.128492D-18    0.396969D-57    0.421447D+00
   0   369    0.346447D-60    0.813943D-19    0.447256D-57    0.421447D+00
   0   370    0.816282D-61    0.515598D-19    0.110967D-57    0.421447D+00
   0   371    0.191581D-61    0.326607D-19    0.200037D-58    0.421447D+00
   0   372    0.446565D-62    0.206889D-19    0.537230D-59    0.421447D+00
   0   373    0.107119D-62    0.131053D-19    0.603720D-60    0.421447D+00
   0   374    0.244138D-63    0.830144D-20    0.359036D-60    0.421447D+00
   0   375    0.571841D-64    0.525843D-20    0.180861D-61    0.421447D+00
   0   376    0.139785D-64    0.333085D-20    0.758753D-62    0.421447D+00
   0   377    0.323326D-65    0.210984D-20    0.236383D-62    0.421447D+00
   0   378    0.758967D-66    0.133641D-20    0.313586D-63    0.421447D+00
   0   379    0.173849D-66    0.846496D-21    0.247972D-63    0.421447D+00
   0   380    0.413809D-67    0.536174D-21    0.284803D-64    0.421447D+00
   0   381    0.988943D-68    0.339611D-21    0.765066D-65    0.421447D+00
   0   382    0.236307D-68    0.215107D-21    0.340321D-65    0.421447D+00
   0   383    0.569740D-69    0.136245D-21    0.294954D-66    0.421447D+00
   0   384    0.129884D-69    0.862943D-22    0.974729D-67    0.421447D+00
   0   385    0.302717D-70    0.546560D-22    0.367677D-67    0.421447D+00
   0   386    0.722472D-71    0.346170D-22    0.320474D-68    0.421447D+00
   0   387    0.167519D-71    0.219247D-22    0.164608D-68    0.421447D+00
   0   388    0.388329D-72    0.138858D-22    0.251861D-69    0.421447D+00
   0   389    0.927683D-73    0.879421D-23    0.470791D-70    0.421447D+00
   0   390    0.220842D-73    0.556930D-23    0.281681D-70    0.421447D+00
   0   391    0.520718D-74    0.352662D-23    0.676305D-71    0.421447D+00
   0   392    0.125934D-74    0.223258D-23    0.163561D-71    0.421447D+00
   0   393    0.291043D-75    0.141251D-23    0.333823D-72    0.421447D+00
   0   394    0.693577D-76    0.892316D-24    0.710506D-73    0.421447D+00
   0   395    0.167557D-76    0.561578D-24    0.449640D-74    0.421447D+00
   0   396    0.393436D-77    0.350076D-24    0.562760D-74    0.421447D+00
   0   397    0.896739D-78    0.212907D-24    0.134403D-74    0.421447D+00