variables =  "IG"  "JG"  "PHI"  "Temp."  "Latent_heat"  "mm"
ZONE  I=  401  J=  101
   0     0    0.100000D+01    0.945314D+00    0.000000D+00    0.143366D+00
   0     1    0.100000D+01    0.945314D+00    0.000000D+00    0.143366D+00
   0     2    0.100000D+01    0.945407D+00    0.000000D+00    0.143160D+00
   0     3    0.100000D+01    0.945593D+00    0.000000D+00    0.142749D+00
   0     4    0.100000D+01    0.945872D+00    0.000000D+00    0.142132D+00
   0     5    0.100000D+01    0.946243D+00    0.000000D+00    0.141308D+00
   0     6    0.100000D+01    0.946706D+00    0.000000D+00    0.140278D+00
   0     7    0.100000D+01    0.947259D+00    0.000000D+00    0.139040D+00
   0     8    0.100000D+01    0.947902D+00    0.000000D+00    0.137594D+00
   0     9    0.100000D+01    0.948635D+00    0.000000D+00    0.135939D+00
   0    10    0.100000D+01    0.949455D+00    0.000000D+00    0.134074D+00
   0    11    0.100000D+01    0.950361D+00    0.000000D+00    0.131999D+00
   0    12    0.100000D+01    0.951352D+00    0.000000D+00    0.129712D+00
   0    13    0.100000D+01    0.952426D+00    0.000000D+00    0.127213D+00
   0    14    0.100000D+01    0.953582D+00    0.000000D+00    0.124501D+00
   0    15    0.100000D+01    0.954818D+00    0.000000D+00    0.121574D+00
   0    16    0.100000D+01    0.956131D+00    0.000000D+00    0.118434D+00
   0    17    0.100000D+01    0.957521D+00    0.000000D+00    0.115078D+00
   0    18    0.100000D+01    0.958985D+00    0.000000D+00    0.111508D+00
   0    19    0.100000D+01    0.960520D+00    0.000000D+00    0.107722D+00
   0    20    0.100000D+01    0.962126D+00    0.000000D+00    0.103721D+00
   0    21    0.100000D+01    0.963799D+00    0.000000D+00    0.995051D-01
   0    22    0.100000D+01    0.965539D+00    0.000000D+00    0.950742D-01
   0    23    0.100000D+01    0.967343D+00    0.000000D+00    0.904285D-01
   0    24    0.100000D+01    0.969211D+00    0.000000D+00    0.855674D-01
   0    25    0.100000D+01    0.971141D+00    0.000000D+00    0.804902D-01
   0    26    0.100000D+01    0.973133D+00    0.000000D+00    0.751946D-01
   0    27    0.100000D+01    0.975187D+00   -0.266454D-10    0.696772D-01
   0    28    0.100000D+01    0.977306D+00    0.159872D-09    0.639320D-01
   0    29    0.100000D+01    0.979491D+00    0.959233D-09    0.579501D-01
   0    30    0.100000D+01    0.981748D+00    0.349054D-08    0.517185D-01
   0    31    0.100000D+01    0.984084D+00    0.271250D-07    0.452190D-01
   0    32    0.100000D+01    0.986506D+00   -0.758194D-07    0.384269D-01
   0    33    0.100000D+01    0.989027D+00    0.269446D-05    0.313103D-01
   0    34    0.100000D+01    0.991663D+00    0.124653D-04    0.238279D-01
   0    35    0.100000D+01    0.994435D+00   -0.624855D-04    0.159276D-01
   0    36    0.999999D+00    0.997366D+00    0.162496D-03    0.754354D-02
   0    37    0.999993D+00    0.100049D+01    0.403768D-02   -0.140912D-02
   0    38    0.999959D+00    0.100386D+01   -0.230271D-01   -0.110411D-01
   0    39    0.999744D+00    0.100752D+01   -0.613728D-02   -0.214917D-01
   0    40    0.998463D+00    0.101157D+01    0.570623D+00   -0.330049D-01
   0    41    0.990869D+00    0.101625D+01    0.381014D+01   -0.462429D-01
   0    42    0.947762D+00    0.102182D+01   -0.107760D+02   -0.611263D-01
   0    43    0.730587D+00    0.102518D+01   -0.319348D+02   -0.724133D-01
   0    44    0.199522D+00    0.102872D+01    0.559559D+02   -0.809041D-01
   0    45    0.460248D-01    0.102648D+01    0.961791D+01   -0.743053D-01
   0    46    0.143757D-01    0.102134D+01    0.544114D+01   -0.601667D-01
   0    47    0.768901D-02    0.101655D+01    0.337588D+01   -0.471651D-01
   0    48    0.721860D-02    0.101334D+01   -0.227422D+00   -0.384150D-01
   0    49    0.805321D-02    0.101153D+01    0.292268D+01   -0.329187D-01
   0    50    0.930144D-02    0.100959D+01    0.500957D+01   -0.270957D-01
   0    51    0.981203D-02    0.100779D+01    0.240083D+01   -0.218277D-01
   0    52    0.103748D-01    0.100693D+01   -0.382416D+01   -0.195977D-01
   0    53    0.104755D-01    0.100589D+01    0.604303D+01   -0.170531D-01
   0    54    0.108368D-01    0.100531D+01   -0.553351D+01   -0.156337D-01
   0    55    0.108269D-01    0.100422D+01    0.484354D+00   -0.118374D-01
   0    56    0.116079D-01    0.100314D+01    0.377320D+01   -0.867047D-02
   0    57    0.116565D-01    0.100203D+01   -0.328129D+01   -0.528966D-02
   0    58    0.123299D-01    0.100201D+01    0.509958D+01   -0.531733D-02
   0    59    0.122193D-01    0.100267D+01    0.134333D+01   -0.815918D-02
   0    60    0.120673D-01    0.100187D+01   -0.308339D+00   -0.586331D-02
   0    61    0.123532D-01    0.100169D+01    0.313037D+01   -0.439776D-02
   0    62    0.127411D-01    0.100089D+01   -0.253988D+01   -0.272355D-02
   0    63    0.129683D-01    0.100016D+01    0.128004D+01   -0.551738D-03
   0    64    0.129065D-01    0.100059D+01   -0.363329D+01   -0.191501D-02
   0    65    0.129887D-01    0.999517D+00   -0.393193D+01    0.105724D-02
   0    66    0.132548D-01    0.999005D+00   -0.906022D+00    0.230454D-02
   0    67    0.135827D-01    0.999577D+00   -0.594203D+01    0.115784D-02
   0    68    0.138674D-01    0.998971D+00    0.381047D+01    0.289253D-02
   0    69    0.137638D-01    0.999685D+00    0.220249D+01    0.111507D-02
   0    70    0.138245D-01    0.100086D+01    0.374947D+01   -0.204402D-02
   0    71    0.143042D-01    0.100035D+01    0.182184D+01   -0.581610D-03
   0    72    0.142081D-01    0.999969D+00   -0.640645D+01   -0.132320D-03
   0    73    0.141255D-01    0.999473D+00   -0.688240D+01    0.103342D-02
   0    74    0.143394D-01    0.998632D+00    0.515647D+01    0.435371D-02
   0    75    0.143066D-01    0.997497D+00    0.221136D+01    0.673932D-02
   0    76    0.142781D-01    0.997791D+00   -0.534491D+01    0.615724D-02
   0    77    0.144893D-01    0.997293D+00    0.701543D+01    0.770260D-02
   0    78    0.144326D-01    0.997009D+00    0.276556D+01    0.810565D-02
   0    79    0.149646D-01    0.996618D+00    0.516124D+01    0.950079D-02
   0    80    0.150647D-01    0.996281D+00   -0.749304D+01    0.103691D-01
   0    81    0.147828D-01    0.996529D+00    0.815232D+01    0.946001D-02
   0    82    0.152089D-01    0.995149D+00    0.362988D+01    0.141855D-01
   0    83    0.148032D-01    0.996889D+00   -0.480762D+01    0.877017D-02
   0    84    0.148102D-01    0.997577D+00   -0.769355D+01    0.633960D-02
   0    85    0.150477D-01    0.997983D+00   -0.837875D+00    0.510337D-02
   0    86    0.150391D-01    0.997358D+00    0.173479D+00    0.805271D-02
   0    87    0.149445D-01    0.997156D+00    0.135688D+01    0.892111D-02
   0    88    0.151595D-01    0.996561D+00    0.319301D+00    0.101004D-01
   0    89    0.155664D-01    0.996172D+00    0.503893D+00    0.115251D-01
   0    90    0.154714D-01    0.996990D+00    0.361260D+01    0.840743D-02
   0    91    0.151923D-01    0.996057D+00   -0.263339D+01    0.109683D-01
   0    92    0.156697D-01    0.995899D+00    0.317652D+01    0.110590D-01
   0    93    0.156767D-01    0.996316D+00   -0.132858D+01    0.104908D-01
   0    94    0.157177D-01    0.996651D+00    0.363107D+01    0.964361D-02
   0    95    0.153791D-01    0.996076D+00   -0.731207D+01    0.106336D-01
   0    96    0.157948D-01    0.996938D+00   -0.365643D+01    0.873512D-02
   0    97    0.154555D-01    0.995872D+00    0.813689D+01    0.119816D-01
   0    98    0.154687D-01    0.996480D+00   -0.834173D+01    0.939249D-02
   0    99    0.154335D-01    0.996522D+00    0.184731D+00    0.957475D-02
   0   100    0.156207D-01    0.994915D+00   -0.266258D+01    0.148650D-01
   0   101    0.160723D-01    0.996112D+00   -0.338356D+01    0.109525D-01
   0   102    0.157183D-01    0.995677D+00    0.186238D+01    0.123223D-01
   0   103    0.156636D-01    0.995977D+00    0.484566D+01    0.108022D-01
   0   104    0.155259D-01    0.995822D+00   -0.257816D+01    0.118785D-01
   0   105    0.155626D-01    0.995729D+00    0.596569D+01    0.124143D-01
   0   106    0.153269D-01    0.996462D+00   -0.836630D+01    0.948284D-02
   0   107    0.155370D-01    0.997260D+00    0.128581D+01    0.823238D-02
   0   108    0.154485D-01    0.995438D+00    0.845490D+01    0.126615D-01
   0   109    0.155675D-01    0.996227D+00   -0.512304D+00    0.110694D-01
   0   110    0.157250D-01    0.995414D+00   -0.498233D+01    0.132515D-01
   0   111    0.158301D-01    0.995129D+00   -0.894245D+01    0.134632D-01
   0   112    0.152109D-01    0.996851D+00    0.130196D+01    0.860325D-02
   0   113    0.153579D-01    0.997120D+00    0.299922D+01    0.881268D-02
   0   114    0.161179D-01    0.996949D+00    0.764454D+01    0.793891D-02
   0   115    0.153293D-01    0.995947D+00    0.852510D+01    0.111594D-01
   0   116    0.155482D-01    0.995860D+00    0.623322D+00    0.118600D-01
   0   117    0.156280D-01    0.995277D+00    0.828522D+01    0.136836D-01
   0   118    0.155185D-01    0.995410D+00   -0.611655D+01    0.138639D-01
   0   119    0.154011D-01    0.995752D+00    0.219550D+01    0.126089D-01
   0   120    0.156875D-01    0.996431D+00   -0.853957D+01    0.105872D-01
   0   121    0.153957D-01    0.996512D+00    0.581328D+01    0.104080D-01
   0   122    0.155576D-01    0.996498D+00    0.105359D+01    0.105602D-01
   0   123    0.157304D-01    0.995787D+00    0.615791D+01    0.123537D-01
   0   124    0.155186D-01    0.996135D+00    0.151168D+01    0.113032D-01
   0   125    0.152838D-01    0.996475D+00   -0.770295D+01    0.964193D-02
   0   126    0.156449D-01    0.996470D+00    0.754491D+01    0.970006D-02
   0   127    0.158789D-01    0.996139D+00    0.844704D+01    0.117362D-01
   0   128    0.152208D-01    0.995648D+00   -0.445610D+01    0.131537D-01
   0   129    0.153444D-01    0.995445D+00    0.241257D+01    0.134519D-01
   0   130    0.154237D-01    0.995387D+00   -0.650574D+00    0.131387D-01
   0   131    0.153494D-01    0.996315D+00    0.395012D+01    0.108730D-01
   0   132    0.151077D-01    0.995196D+00    0.422807D+01    0.133606D-01
   0   133    0.149825D-01    0.995387D+00   -0.510014D+01    0.136523D-01
   0   134    0.154035D-01    0.995911D+00   -0.174142D+01    0.110569D-01
   0   135    0.155330D-01    0.995771D+00   -0.579739D+01    0.118955D-01
   0   136    0.153348D-01    0.995315D+00   -0.148292D+01    0.132216D-01
   0   137    0.153854D-01    0.996143D+00   -0.295309D+01    0.117523D-01
   0   138    0.152478D-01    0.997271D+00    0.763455D+01    0.726655D-02
   0   139    0.156687D-01    0.998045D+00    0.534031D+01    0.488113D-02
   0   140    0.156431D-01    0.997239D+00   -0.287960D+01    0.831583D-02
   0   141    0.155594D-01    0.995641D+00    0.296139D+01    0.121946D-01
   0   142    0.154959D-01    0.994967D+00   -0.252367D+01    0.143351D-01
   0   143    0.161583D-01    0.995285D+00   -0.100682D+02    0.134435D-01
   0   144    0.157232D-01    0.995434D+00    0.190638D+01    0.125784D-01
   0   145    0.154833D-01    0.996090D+00   -0.878311D+01    0.114201D-01
   0   146    0.152032D-01    0.995866D+00   -0.492347D+01    0.115146D-01
   0   147    0.156748D-01    0.995474D+00    0.217135D+01    0.120741D-01
   0   148    0.156908D-01    0.994820D+00   -0.645539D+01    0.152592D-01
   0   149    0.156525D-01    0.996319D+00   -0.140040D+01    0.110036D-01
   0   150    0.154594D-01    0.995748D+00   -0.100367D+01    0.120132D-01
   0   151    0.153255D-01    0.994664D+00   -0.243720D+01    0.148878D-01
   0   152    0.154410D-01    0.995561D+00    0.333820D+01    0.121284D-01
   0   153    0.156454D-01    0.996042D+00    0.781153D+01    0.121349D-01
   0   154    0.154122D-01    0.996258D+00   -0.432487D+00    0.107406D-01
   0   155    0.151149D-01    0.997335D+00    0.316942D+01    0.744977D-02
   0   156    0.151735D-01    0.995985D+00   -0.631809D+01    0.109641D-01
   0   157    0.154401D-01    0.996826D+00    0.730147D+01    0.861360D-02
   0   158    0.152133D-01    0.996615D+00   -0.253622D+01    0.913113D-02
   0   159    0.152134D-01    0.996806D+00   -0.654714D+01    0.908968D-02
   0   160    0.158766D-01    0.998565D+00   -0.110647D+02    0.443765D-02
   0   161    0.152967D-01    0.998378D+00    0.104601D+01    0.495158D-02
   0   162    0.150121D-01    0.996641D+00   -0.652679D+01    0.900291D-02
   0   163    0.149883D-01    0.995205D+00   -0.685589D+01    0.140689D-01
   0   164    0.151336D-01    0.996666D+00   -0.185976D+01    0.913452D-02
   0   165    0.152413D-01    0.997681D+00   -0.414558D+01    0.625989D-02
   0   166    0.148493D-01    0.996054D+00   -0.880087D+01    0.120972D-01
   0   167    0.149786D-01    0.997913D+00   -0.340093D+00    0.573242D-02
   0   168    0.153174D-01    0.996479D+00   -0.831669D+00    0.961334D-02
   0   169    0.152209D-01    0.995875D+00   -0.739644D+01    0.122769D-01
   0   170    0.149842D-01    0.995651D+00    0.640616D+01    0.132560D-01
   0   171    0.147639D-01    0.996656D+00   -0.608127D+00    0.998361D-02
   0   172    0.149489D-01    0.996825D+00   -0.582001D+01    0.941296D-02
   0   173    0.148193D-01    0.995668D+00    0.259700D+01    0.127021D-01
   0   174    0.146747D-01    0.996335D+00   -0.760802D+01    0.101378D-01
   0   175    0.152065D-01    0.996924D+00   -0.783722D+01    0.813940D-02
   0   176    0.148848D-01    0.996399D+00   -0.146006D+01    0.100387D-01
   0   177    0.149129D-01    0.996154D+00    0.849117D+01    0.110879D-01
   0   178    0.146426D-01    0.997188D+00    0.206217D+01    0.798568D-02
   0   179    0.147268D-01    0.997590D+00   -0.623194D+00    0.731022D-02
   0   180    0.144700D-01    0.998018D+00    0.443535D+01    0.572964D-02
   0   181    0.147448D-01    0.998723D+00   -0.515027D+00    0.427459D-02
   0   182    0.146676D-01    0.998603D+00    0.616222D+01    0.400811D-02
   0   183    0.145805D-01    0.997040D+00   -0.739022D+01    0.794536D-02
   0   184    0.149730D-01    0.996397D+00    0.214195D+01    0.997681D-02
   0   185    0.148830D-01    0.996813D+00    0.364494D+01    0.874486D-02
   0   186    0.147558D-01    0.997394D+00   -0.322291D+01    0.698952D-02
   0   187    0.150468D-01    0.998264D+00   -0.814256D+01    0.553058D-02
   0   188    0.151036D-01    0.997507D+00   -0.657191D+01    0.631946D-02
   0   189    0.150300D-01    0.997295D+00   -0.610782D+01    0.799347D-02
   0   190    0.143609D-01    0.996007D+00   -0.701253D+00    0.110264D-01
   0   191    0.144584D-01    0.996036D+00    0.426416D+01    0.115493D-01
   0   192    0.147786D-01    0.997361D+00    0.448891D+01    0.802188D-02
   0   193    0.154032D-01    0.997233D+00    0.295988D+01    0.816239D-02
   0   194    0.149670D-01    0.998972D+00    0.737191D+01    0.275716D-02
   0   195    0.153130D-01    0.998675D+00   -0.153317D+01    0.354205D-02
   0   196    0.149287D-01    0.998592D+00    0.782375D+01    0.480393D-02
   0   197    0.146047D-01    0.998349D+00   -0.291502D+01    0.530680D-02
   0   198    0.149805D-01    0.997220D+00    0.331610D+01    0.853376D-02
   0   199    0.145403D-01    0.996906D+00    0.846098D+01    0.844062D-02
   0   200    0.149656D-01    0.996670D+00    0.288750D+01    0.879929D-02
   0   201    0.147730D-01    0.997155D+00    0.228200D+00    0.801342D-02
   0   202    0.151041D-01    0.997061D+00   -0.500165D+01    0.878223D-02
   0   203    0.151031D-01    0.997148D+00    0.580662D+01    0.829020D-02
   0   204    0.150737D-01    0.997215D+00    0.561155D+01    0.768885D-02
   0   205    0.150511D-01    0.997863D+00    0.483648D+01    0.604193D-02
   0   206    0.148073D-01    0.997345D+00    0.489090D+01    0.720516D-02
   0   207    0.149252D-01    0.998447D+00    0.289892D+01    0.463246D-02
   0   208    0.149245D-01    0.997476D+00   -0.244403D+01    0.638254D-02
   0   209    0.147111D-01    0.997308D+00    0.625297D+01    0.797510D-02
   0   210    0.149234D-01    0.997628D+00   -0.637006D+01    0.692467D-02
   0   211    0.146484D-01    0.997223D+00   -0.478772D+01    0.769915D-02
   0   212    0.147382D-01    0.996520D+00    0.119674D+01    0.951413D-02
   0   213    0.147354D-01    0.997037D+00    0.181407D+01    0.848745D-02
   0   214    0.145765D-01    0.996573D+00   -0.668515D+01    0.102845D-01
   0   215    0.147286D-01    0.995887D+00    0.593047D+01    0.114933D-01
   0   216    0.149993D-01    0.995774D+00    0.173785D+01    0.127242D-01
   0   217    0.146785D-01    0.996797D+00    0.846744D+01    0.974315D-02
   0   218    0.146949D-01    0.997438D+00    0.342621D+01    0.794585D-02
   0   219    0.144209D-01    0.997720D+00    0.351751D+01    0.656064D-02
   0   220    0.142304D-01    0.998770D+00    0.493239D+00    0.395467D-02
   0   221    0.143591D-01    0.997332D+00   -0.633791D+00    0.765637D-02
   0   222    0.141448D-01    0.997223D+00    0.315905D+01    0.874181D-02
   0   223    0.144193D-01    0.997648D+00   -0.285795D+01    0.667930D-02
   0   224    0.141641D-01    0.997319D+00   -0.608188D+01    0.716379D-02
   0   225    0.145723D-01    0.998022D+00   -0.880220D+01    0.592315D-02
   0   226    0.143471D-01    0.998176D+00   -0.871070D+01    0.502540D-02
   0   227    0.138526D-01    0.997612D+00    0.246523D+00    0.727284D-02
   0   228    0.139454D-01    0.998454D+00   -0.293074D+00    0.411427D-02
   0   229    0.148263D-01    0.998646D+00   -0.503365D+01    0.369649D-02
   0   230    0.140792D-01    0.998611D+00    0.681788D+01    0.473359D-02
   0   231    0.140893D-01    0.998411D+00   -0.427724D+01    0.500130D-02
   0   232    0.140863D-01    0.998017D+00    0.356497D+01    0.624888D-02
   0   233    0.141015D-01    0.997603D+00   -0.508823D+01    0.638631D-02
   0   234    0.142938D-01    0.997437D+00   -0.415558D+00    0.775411D-02
   0   235    0.136787D-01    0.997682D+00    0.170178D+01    0.730216D-02
   0   236    0.139414D-01    0.998218D+00    0.707724D+01    0.481924D-02
   0   237    0.142200D-01    0.998939D+00   -0.348313D+01    0.351209D-02
   0   238    0.141253D-01    0.998077D+00   -0.468926D+01    0.570078D-02
   0   239    0.142253D-01    0.998155D+00   -0.425635D+01    0.462139D-02
   0   240    0.138710D-01    0.997844D+00    0.882428D+01    0.600729D-02
   0   241    0.141444D-01    0.998098D+00   -0.422663D+01    0.520418D-02
   0   242    0.142419D-01    0.997804D+00   -0.242463D+01    0.642731D-02
   0   243    0.140004D-01    0.999258D+00   -0.517216D+01    0.279680D-02
   0   244    0.140039D-01    0.100020D+01   -0.606773D+01   -0.134281D-02
   0   245    0.141793D-01    0.999727D+00    0.132822D+01    0.239331D-03
   0   246    0.144133D-01    0.999475D+00   -0.761154D+01    0.199433D-02
   0   247    0.141302D-01    0.999427D+00   -0.690464D+00    0.162800D-02
   0   248    0.138967D-01    0.100058D+01    0.629535D+01   -0.129415D-02
   0   249    0.137335D-01    0.999112D+00    0.365274D+01    0.196270D-02
   0   250    0.138361D-01    0.998905D+00    0.575587D+01    0.315447D-02
   0   251    0.136361D-01    0.999758D+00   -0.583673D+01    0.247506D-03
   0   252    0.140372D-01    0.999578D+00   -0.517168D+01    0.161221D-02
   0   253    0.142811D-01    0.997987D+00    0.316918D+01    0.517264D-02
   0   254    0.140101D-01    0.999159D+00   -0.233608D+01    0.270829D-02
   0   255    0.137412D-01    0.999146D+00    0.265035D+01    0.261450D-02
   0   256    0.139325D-01    0.998869D+00    0.633829D+01    0.349797D-02
   0   257    0.135027D-01    0.998723D+00   -0.904230D+00    0.405753D-02
   0   258    0.142389D-01    0.999404D+00    0.329359D+01    0.201327D-02
   0   259    0.141291D-01    0.999968D+00    0.237843D+01   -0.581394D-03
   0   260    0.140494D-01    0.998980D+00   -0.404001D+00    0.315554D-02
   0   261    0.137579D-01    0.999547D+00    0.345183D+00    0.110077D-02
   0   262    0.138963D-01    0.998859D+00    0.420648D+01    0.358334D-02
   0   263    0.137427D-01    0.999705D+00   -0.413471D+01    0.107549D-02
   0   264    0.135609D-01    0.999464D+00    0.232457D+01    0.114392D-02
   0   265    0.136814D-01    0.999678D+00    0.819393D+00    0.156414D-02
   0   266    0.136896D-01    0.100093D+01   -0.326042D+01   -0.217438D-02
   0   267    0.137562D-01    0.100020D+01   -0.743719D+01   -0.866003D-03
   0   268    0.139698D-01    0.999471D+00    0.429479D+01    0.763603D-03
   0   269    0.140454D-01    0.999361D+00    0.577593D+01    0.136115D-02
   0   270    0.136851D-01    0.999811D+00   -0.641137D+01    0.104415D-02
   0   271    0.133773D-01    0.999295D+00   -0.162632D+01    0.245058D-02
   0   272    0.135256D-01    0.999442D+00    0.505593D+01    0.190711D-02
   0   273    0.137421D-01    0.999343D+00    0.979827D+00    0.140261D-02
   0   274    0.136189D-01    0.100034D+01   -0.448638D+01   -0.105517D-02
   0   275    0.134056D-01    0.100022D+01    0.542680D+01   -0.120828D-02
   0   276    0.131651D-01    0.100087D+01   -0.233870D+01   -0.248858D-02
   0   277    0.133560D-01    0.100084D+01   -0.455893D+00   -0.216223D-02
   0   278    0.129145D-01    0.100085D+01   -0.658300D+01   -0.301132D-02
   0   279    0.128402D-01    0.100129D+01    0.209828D+01   -0.331925D-02
   0   280    0.130196D-01    0.100010D+01   -0.587241D+01   -0.855754D-03
   0   281    0.132599D-01    0.100007D+01    0.583678D+01   -0.475107D-03
   0   282    0.132270D-01    0.100060D+01    0.204230D+01   -0.198721D-02
   0   283    0.125785D-01    0.999818D+00    0.283369D+01   -0.111422D-03
   0   284    0.129873D-01    0.100067D+01   -0.569958D+01   -0.210811D-02
   0   285    0.129361D-01    0.100031D+01   -0.223927D+01   -0.551701D-03
   0   286    0.128102D-01    0.100064D+01   -0.213091D+01   -0.150101D-02
   0   287    0.132499D-01    0.100023D+01    0.274275D+01   -0.703330D-03
   0   288    0.127932D-01    0.999305D+00    0.539117D+01    0.179469D-02
   0   289    0.129513D-01    0.100136D+01   -0.364697D+01   -0.348209D-02
   0   290    0.129703D-01    0.100120D+01    0.664960D+01   -0.401609D-02
   0   291    0.131169D-01    0.100061D+01    0.149194D+01   -0.181139D-02
   0   292    0.131350D-01    0.100010D+01    0.420936D+00   -0.710470D-05
   0   293    0.129704D-01    0.100117D+01   -0.649389D+01   -0.369953D-02
   0   294    0.130941D-01    0.100158D+01   -0.571223D+01   -0.418633D-02
   0   295    0.131569D-01    0.100115D+01   -0.292284D+01   -0.390982D-02
   0   296    0.131648D-01    0.100097D+01   -0.387866D+01   -0.247073D-02
   0   297    0.131720D-01    0.100096D+01    0.666341D+01   -0.222715D-02
   0   298    0.131011D-01    0.100056D+01   -0.249687D+01   -0.177542D-02
   0   299    0.131762D-01    0.100077D+01   -0.236013D+01   -0.257629D-02
   0   300    0.130882D-01    0.100067D+01   -0.131626D+01   -0.112904D-02
   0   301    0.134194D-01    0.100171D+01    0.596876D+01   -0.443669D-02
   0   302    0.133969D-01    0.999905D+00    0.793571D+00    0.274796D-04
   0   303    0.136001D-01    0.999451D+00    0.393860D+01    0.121833D-02
   0   304    0.130520D-01    0.999517D+00   -0.198878D+01    0.103478D-02
   0   305    0.132934D-01    0.999857D+00    0.700516D+00    0.169607D-03
   0   306    0.140762D-01    0.100019D+01    0.410761D+01   -0.110192D-02
   0   307    0.132734D-01    0.999878D+00   -0.494408D+01    0.166251D-03
   0   308    0.133373D-01    0.999750D+00    0.577420D+01    0.895184D-03
   0   309    0.130365D-01    0.999119D+00   -0.244192D+01    0.192516D-02
   0   310    0.133192D-01    0.999026D+00    0.158262D+01    0.329636D-02
   0   311    0.132849D-01    0.999636D+00   -0.743488D+01    0.133699D-02
   0   312    0.131626D-01    0.998667D+00   -0.503406D+01    0.353697D-02
   0   313    0.131340D-01    0.999187D+00   -0.473892D+01    0.279628D-02
   0   314    0.134087D-01    0.999680D+00   -0.722122D+01    0.157681D-02
   0   315    0.138786D-01    0.999334D+00    0.272613D+01    0.221022D-02
   0   316    0.136395D-01    0.999883D+00   -0.318675D+01   -0.253480D-03
   0   317    0.136286D-01    0.999939D+00    0.145153D+01    0.637163D-03
   0   318    0.134027D-01    0.999465D+00    0.395482D+01    0.154304D-02
   0   319    0.135537D-01    0.999566D+00   -0.547399D+01    0.166060D-02
   0   320    0.133382D-01    0.998912D+00   -0.227098D+01    0.307248D-02
   0   321    0.132998D-01    0.998828D+00    0.503935D+01    0.315600D-02
   0   322    0.136372D-01    0.999582D+00   -0.218070D+01    0.139790D-02
   0   323    0.139245D-01    0.999430D+00    0.537157D+01    0.191004D-02
   0   324    0.135539D-01    0.999166D+00   -0.490373D+01    0.198765D-02
   0   325    0.133423D-01    0.999356D+00   -0.157763D+01    0.131976D-02
   0   326    0.136557D-01    0.100007D+01    0.244826D+01    0.221160D-03
   0   327    0.139402D-01    0.100017D+01    0.410478D+01   -0.458446D-03
   0   328    0.136400D-01    0.100116D+01    0.301536D+01   -0.398148D-02
   0   329    0.135071D-01    0.999779D+00   -0.728532D+00    0.134084D-02
   0   330    0.136911D-01    0.998463D+00    0.460352D+01    0.506774D-02
   0   331    0.134635D-01    0.999428D+00    0.257149D+01    0.211577D-02
   0   332    0.138215D-01    0.999940D+00    0.622167D+01    0.121143D-03
   0   333    0.136958D-01    0.999911D+00    0.333932D+01    0.378992D-03
   0   334    0.135126D-01    0.100001D+01   -0.165645D+00   -0.295092D-03
   0   335    0.139840D-01    0.999051D+00   -0.842556D+01    0.212117D-02
   0   336    0.138956D-01    0.998399D+00   -0.102083D+01    0.459937D-02
   0   337    0.136897D-01    0.998422D+00    0.379080D+01    0.417211D-02
   0   338    0.139312D-01    0.999309D+00    0.402650D+01    0.186590D-02
   0   339    0.141630D-01    0.999084D+00    0.736950D+01    0.258158D-02
   0   340    0.142152D-01    0.998438D+00   -0.647706D+00    0.393820D-02
   0   341    0.141898D-01    0.997974D+00   -0.333358D+01    0.559789D-02
   0   342    0.141090D-01    0.998839D+00    0.783564D+01    0.287102D-02
   0   343    0.141573D-01    0.999418D+00   -0.509437D+01    0.148056D-02
   0   344    0.141974D-01    0.997699D+00   -0.539938D+01    0.609788D-02
   0   345    0.143441D-01    0.997874D+00    0.134760D+01    0.545202D-02
   0   346    0.138909D-01    0.998979D+00   -0.554957D+01    0.213473D-02
   0   347    0.143354D-01    0.998710D+00    0.124943D+01    0.317152D-02
   0   348    0.144087D-01    0.999145D+00    0.405905D+01    0.213938D-02
   0   349    0.143996D-01    0.998471D+00    0.103384D+01    0.453400D-02
   0   350    0.142640D-01    0.998512D+00    0.572868D+01    0.396215D-02
   0   351    0.141302D-01    0.999190D+00   -0.430879D+01    0.189993D-02
   0   352    0.135808D-01    0.999787D+00    0.133234D+01    0.710566D-03
   0   353    0.138126D-01    0.999651D+00   -0.766814D+01    0.841940D-03
   0   354    0.138868D-01    0.999989D+00    0.459877D+01   -0.283473D-03
   0   355    0.137709D-01    0.999068D+00    0.427467D+01    0.331022D-02
   0   356    0.140257D-01    0.999312D+00   -0.309834D+01    0.169056D-02
   0   357    0.136590D-01    0.998897D+00   -0.211800D+01    0.342858D-02
   0   358    0.139111D-01    0.999887D+00   -0.178012D+01   -0.226137D-04
   0   359    0.134849D-01    0.999948D+00    0.238348D+01   -0.651283D-04
   0   360    0.135736D-01    0.998786D+00    0.897072D+00    0.352699D-02
   0   361    0.133039D-01    0.999816D+00    0.338714D+01    0.101796D-02
   0   362    0.137795D-01    0.999597D+00   -0.171895D+01    0.415780D-03
   0   363    0.139403D-01    0.999846D+00   -0.703712D+01    0.609053D-03
   0   364    0.137795D-01    0.999693D+00    0.632366D+01    0.961716D-03
   0   365    0.140723D-01    0.999674D+00   -0.116338D+01    0.134812D-02
   0   366    0.138588D-01    0.998900D+00   -0.389351D+01    0.373118D-02
   0   367    0.140970D-01    0.998398D+00   -0.441043D+01    0.482547D-02
   0   368    0.141026D-01    0.997613D+00   -0.187472D+01    0.707001D-02
   0   369    0.141167D-01    0.997420D+00    0.650392D+01    0.742986D-02
   0   370    0.146191D-01    0.998357D+00   -0.497541D+01    0.536981D-02
   0   371    0.147040D-01    0.998431D+00    0.708330D+01    0.399110D-02
   0   372    0.149673D-01    0.997091D+00   -0.571158D+01    0.856214D-02
   0   373    0.151952D-01    0.997419D+00   -0.539652D+01    0.745831D-02
   0   374    0.150642D-01    0.996086D+00   -0.730383D+00    0.113209D-01
   0   375    0.153629D-01    0.994123D+00   -0.461246D+01    0.171230D-01
   0   376    0.160894D-01    0.991762D+00    0.591853D+01    0.241821D-01
   0   377    0.171298D-01    0.987969D+00    0.667941D+01    0.338730D-01
   0   378    0.185596D-01    0.981110D+00   -0.133159D+01    0.538691D-01
   0   379    0.212391D-01    0.971682D+00   -0.379317D+01    0.783647D-01
   0   380    0.239717D-01    0.957673D+00    0.747348D+01    0.114774D+00
   0   381    0.271756D-01    0.933586D+00    0.444565D+01    0.168666D+00
   0   382    0.275670D-01    0.894688D+00   -0.993479D+01    0.232941D+00
   0   383    0.231916D-01    0.835186D+00   -0.534547D+01    0.293955D+00
   0   384    0.156176D-01    0.753190D+00    0.136030D+01    0.339939D+00
   0   385    0.797468D-02    0.652391D+00    0.126850D+01    0.369878D+00
   0   386    0.369827D-02    0.543416D+00    0.397409D+00    0.388308D+00
   0   387    0.148767D-02    0.436959D+00    0.222495D+00    0.399691D+00
   0   388    0.566545D-03    0.340871D+00    0.964849D-01    0.406895D+00
   0   389    0.202818D-03    0.259099D+00    0.115556D+00    0.411585D+00
   0   390    0.685656D-04    0.192542D+00    0.681316D-01    0.414714D+00
   0   391    0.237385D-04    0.140274D+00    0.104626D-01    0.416836D+00
   0   392    0.774644D-05    0.100405D+00    0.746533D-02    0.418291D+00
   0   393    0.238720D-05    0.707169D-01    0.123271D-02    0.419294D+00
   0   394    0.740017D-06    0.490378D-01    0.591417D-03    0.419988D+00
   0   395    0.223085D-06    0.334382D-01    0.100120D-03    0.420468D+00
   0   396    0.649074D-07    0.223024D-01    0.586192D-04    0.420801D+00
   0   397    0.190049D-07    0.143268D-01    0.168743D-04    0.421036D+00